Siesta Version:                                        siesta-3.2-pl-3
Architecture  : x86_64-unknown-linux-gnu--unknown
Compiler flags: mpiifort -g -O2 -fPIC -xSSE4.1 -fp-model source -shared-intel 
PARALLEL version

* Running on   12 nodes in parallel
>> Start of run:   3-MAY-2016   4:32:18

                           ***********************       
                           *  WELCOME TO SIESTA  *       
                           ***********************       

reinit: Reading from standard input
************************** Dump of input data file ****************************
#(1) General system descriptors
SystemName            GRP_doping    # Descriptive name of the system
SystemLabel           GRP_doping    # Short name for naming files
%include STRUCT.fdf
%include KPT.fdf
%include BASIS.fdf
#%include TS.fdf # for transiesta calculation
#(4) DFT, Grid, SCF
XC.functional         GGA           # LDA or GGA (default = LDA)
XC.authors            PBE           # CA (Ceperley-Aldr) = PZ
                                    #    (Perdew-Zunger) - LDA - Default
                                    # PW92 (Perdew-Wang-92) - LDA
                                    # PBE (Perdew-Burke-Ernzerhof) - GGA
MeshCutoff            200.000000    Ry      # Default: 50.0 Ry ~ 0.444 Bohr
                                    #         100.0 Ry ~ 0.314 Bohr
MaxSCFIterations      500           # Default: 50
DM.MixingWeight       0.05          # Default: 0.25
DM.NumberPulay        10            # Default: 0
DM.PulayOnFile        F             # SystemLabel.P1, SystemLabel.P2
DM.Tolerance          1.d-4         # Default: 1.d-4
DM.UseSaveDM          .true.        # because of the bug
SCFMustConverge       .true.
NeglNonOverlapInt     F             # Default: F
#(5) Eigenvalue problem: order-N or diagonalization
SolutionMethod        Diagon        # or Transiesta
ElectronicTemperature 300.0 K       # Default: 300.0 K
#(6) Molecular dynamics and relaxations
#MD.TypeOfRun          CG            # Type of dynamics:
#MD.VariableCell       F
#MD.NumCGsteps         0           # 0 for single-point / 100 for gopt
#MD.MaxCGDispl         0.2 Bohr      # Default: 0.2 Bohr
#MD.MaxForceTol        0.02 eV/Ang   # Default: 0.04 eV/Ang
#MD.MaxStressTol       1.0 GPa       # Default: 1.0 GPa
# Geometry Constraints
#%block GeometryConstraints
#	position from 1 to 44
#%endblock GeometryConstraints
BandLinesScale   pi/a
%block BandLines
 1   0.00000000  0.00000000  0.00000000
50   0.00000000  0.07809418  0.00000000
50   0.04509075  0.07809242  0.00000000
20   0.00000000  0.00000000  0.00000000
%endblock BandLines
************************** End of input data file *****************************

reinit: -----------------------------------------------------------------------
reinit: System Name: GRP_doping
reinit: -----------------------------------------------------------------------
reinit: System Label: GRP_doping                                                  
reinit: -----------------------------------------------------------------------

initatom: Reading input for the pseudopotentials and atomic orbitals ----------
 Species number:            1  Label: B Atomic number:           5
 Species number:            2  Label: C Atomic number:           6
Ground state valence configuration:   2s02  2p01
Reading pseudopotential information in formatted form from B.psf

Valence configuration for pseudopotential generation:
2s( 2.00) rc: 1.74
2p( 1.00) rc: 1.74
3d( 0.00) rc: 1.74
4f( 0.00) rc: 1.74
Ground state valence configuration:   2s02  2p02
Reading pseudopotential information in formatted form from C.psf

Valence configuration for pseudopotential generation:
2s( 2.00) rc: 1.54
2p( 2.00) rc: 1.54
3d( 0.00) rc: 1.54
4f( 0.00) rc: 1.54
For B, standard SIESTA heuristics set lmxkb to 3
 (one more than the basis l, including polarization orbitals).
Use PS.lmax or PS.KBprojectors blocks to override.
For C, standard SIESTA heuristics set lmxkb to 3
 (one more than the basis l, including polarization orbitals).
Use PS.lmax or PS.KBprojectors blocks to override.

<basis_specs>
===============================================================================
B                    Z=   5    Mass=  10.810        Charge= 0.17977+309
Lmxo=1 Lmxkb= 3    BasisType=split      Semic=F
L=0  Nsemic=0  Cnfigmx=2
          n=1  nzeta=2  polorb=0
            splnorm:   0.15000    
               vcte:    0.0000    
               rinn:    0.0000    
                rcs:    0.0000      0.0000    
            lambdas:    1.0000      1.0000    
L=1  Nsemic=0  Cnfigmx=2
          n=1  nzeta=2  polorb=1
            splnorm:   0.15000    
               vcte:    0.0000    
               rinn:    0.0000    
                rcs:    0.0000      0.0000    
            lambdas:    1.0000      1.0000    
-------------------------------------------------------------------------------
L=0  Nkbl=1  erefs: 0.17977+309
L=1  Nkbl=1  erefs: 0.17977+309
L=2  Nkbl=1  erefs: 0.17977+309
L=3  Nkbl=1  erefs: 0.17977+309
===============================================================================
</basis_specs>

atom: Called for B                     (Z =   5)

read_vps: Pseudopotential generation method:
read_vps: ATM3      Troullier-Martins                       
Total valence charge:    3.00000

read_vps: Pseudopotential includes a core correction:
read_vps: Pseudo-core for xc-correction

xc_check: Exchange-correlation functional:
xc_check: GGA Perdew, Burke & Ernzerhof 1996
V l=0 = -2*Zval/r beyond r=  1.7165
V l=1 = -2*Zval/r beyond r=  1.7165
V l=2 = -2*Zval/r beyond r=  1.7165
V l=3 = -2*Zval/r beyond r=  1.6951
All V_l potentials equal beyond r=  1.7165
This should be close to max(r_c) in ps generation
All pots = -2*Zval/r beyond r=  1.7165

VLOCAL1: 99.0% of the norm of Vloc inside     14.733 Ry
VLOCAL1: 99.9% of the norm of Vloc inside     33.577 Ry
atom: Maximum radius for 4*pi*r*r*local-pseudopot. charge    2.04484
atom: Maximum radius for r*vlocal+2*Zval:    1.75994
GHOST: No ghost state for L =  0
GHOST: No ghost state for L =  1
GHOST: No ghost state for L =  2
GHOST: No ghost state for L =  3

KBgen: Kleinman-Bylander projectors: 
   l= 0   rc=  1.897051   el= -0.693730   Ekb=  4.595746   kbcos=  0.286105
   l= 1   rc=  1.920920   el= -0.265236   Ekb= -2.350715   kbcos= -0.315747
   l= 2   rc=  2.044840   el=  0.002055   Ekb= -0.690767   kbcos= -0.013822
   l= 3   rc=  2.149707   el=  0.003188   Ekb= -0.315358   kbcos= -0.002055

KBgen: Total number of  Kleinman-Bylander projectors:   16
atom: -------------------------------------------------------------------------

atom: SANKEY-TYPE ORBITALS:
atom: Selected multiple-zeta basis: split     

SPLIT: Orbitals with angular momentum L= 0

SPLIT: Basis orbitals for state 2s

SPLIT: PAO cut-off radius determined from an
SPLIT: energy shift=  0.007350 Ry

   izeta = 1
                 lambda =    1.000000
                     rc =    5.422032
                 energy =   -0.686029
                kinetic =    0.576707
    potential(screened) =   -1.262736
       potential(ionic) =   -3.271094

   izeta = 2
                 rmatch =    4.222573
              splitnorm =    0.150000
                 energy =   -0.602132
                kinetic =    0.858975
    potential(screened) =   -1.461107
       potential(ionic) =   -3.582536

SPLIT: Orbitals with angular momentum L= 1

SPLIT: Basis orbitals for state 2p

SPLIT: PAO cut-off radius determined from an
SPLIT: energy shift=  0.007350 Ry

   izeta = 1
                 lambda =    1.000000
                     rc =    6.790259
                 energy =   -0.258578
                kinetic =    1.481412
    potential(screened) =   -1.739989
       potential(ionic) =   -3.657461

   izeta = 2
                 rmatch =    4.608740
              splitnorm =    0.150000
                 energy =   -0.173757
                kinetic =    2.186690
    potential(screened) =   -2.360447
       potential(ionic) =   -4.464260

POLgen: Perturbative polarization orbital with L=  2

POLgen: Polarization orbital for state 2p

   izeta = 1
                     rc =    6.790259
                 energy =    0.684082
                kinetic =    1.471481
    potential(screened) =   -0.787399
       potential(ionic) =   -2.406985
atom: Total number of Sankey-type orbitals: 13

atm_pop: Valence configuration (for local Pseudopot. screening):
 2s( 2.00)                                                            
 2p( 1.00)                                                            
Vna: chval, zval:    3.00000   3.00000

Vna:  Cut-off radius for the neutral-atom potential:   6.790259
comcore: Pseudo-core radius Rcore=  2.122997

atom: _________________________________________________________________________

<basis_specs>
===============================================================================
C                    Z=   6    Mass=  12.010        Charge= 0.17977+309
Lmxo=1 Lmxkb= 3    BasisType=split      Semic=F
L=0  Nsemic=0  Cnfigmx=2
          n=1  nzeta=2  polorb=0
            splnorm:   0.15000    
               vcte:    0.0000    
               rinn:    0.0000    
                rcs:    0.0000      0.0000    
            lambdas:    1.0000      1.0000    
L=1  Nsemic=0  Cnfigmx=2
          n=1  nzeta=2  polorb=1
            splnorm:   0.15000    
               vcte:    0.0000    
               rinn:    0.0000    
                rcs:    0.0000      0.0000    
            lambdas:    1.0000      1.0000    
-------------------------------------------------------------------------------
L=0  Nkbl=1  erefs: 0.17977+309
L=1  Nkbl=1  erefs: 0.17977+309
L=2  Nkbl=1  erefs: 0.17977+309
L=3  Nkbl=1  erefs: 0.17977+309
===============================================================================
</basis_specs>

atom: Called for C                     (Z =   6)

read_vps: Pseudopotential generation method:
read_vps: ATM3      Troullier-Martins                       
Total valence charge:    4.00000

read_vps: Pseudopotential includes a core correction:
read_vps: Pseudo-core for xc-correction

xc_check: Exchange-correlation functional:
xc_check: GGA Perdew, Burke & Ernzerhof 1996
V l=0 = -2*Zval/r beyond r=  1.5227
V l=1 = -2*Zval/r beyond r=  1.5227
V l=2 = -2*Zval/r beyond r=  1.5227
V l=3 = -2*Zval/r beyond r=  1.5038
All V_l potentials equal beyond r=  1.5227
This should be close to max(r_c) in ps generation
All pots = -2*Zval/r beyond r=  1.5227

VLOCAL1: 99.0% of the norm of Vloc inside     18.722 Ry
VLOCAL1: 99.9% of the norm of Vloc inside     42.668 Ry
atom: Maximum radius for 4*pi*r*r*local-pseudopot. charge    1.83678
atom: Maximum radius for r*vlocal+2*Zval:    1.58088
GHOST: No ghost state for L =  0
GHOST: No ghost state for L =  1
GHOST: No ghost state for L =  2
GHOST: No ghost state for L =  3

KBgen: Kleinman-Bylander projectors: 
   l= 0   rc=  1.704034   el= -1.009801   Ekb=  5.335044   kbcos=  0.316824
   l= 1   rc=  1.704034   el= -0.388707   Ekb= -3.785862   kbcos= -0.366464
   l= 2   rc=  1.791422   el=  0.001971   Ekb= -0.970471   kbcos= -0.009212
   l= 3   rc=  1.859892   el=  0.003065   Ekb= -0.399525   kbcos= -0.001223

KBgen: Total number of  Kleinman-Bylander projectors:   16
atom: -------------------------------------------------------------------------

atom: SANKEY-TYPE ORBITALS:
atom: Selected multiple-zeta basis: split     

SPLIT: Orbitals with angular momentum L= 0

SPLIT: Basis orbitals for state 2s

SPLIT: PAO cut-off radius determined from an
SPLIT: energy shift=  0.007350 Ry

   izeta = 1
                 lambda =    1.000000
                     rc =    4.632753
                 energy =   -1.002270
                kinetic =    0.855760
    potential(screened) =   -1.858031
       potential(ionic) =   -5.417575

   izeta = 2
                 rmatch =    3.431921
              splitnorm =    0.150000
                 energy =   -0.867111
                kinetic =    1.300804
    potential(screened) =   -2.167915
       potential(ionic) =   -5.962684

SPLIT: Orbitals with angular momentum L= 1

SPLIT: Basis orbitals for state 2p

SPLIT: PAO cut-off radius determined from an
SPLIT: energy shift=  0.007350 Ry

   izeta = 1
                 lambda =    1.000000
                     rc =    5.658549
                 energy =   -0.381140
                kinetic =    2.399701
    potential(screened) =   -2.780841
       potential(ionic) =   -6.206085

   izeta = 2
                 rmatch =    3.653288
              splitnorm =    0.150000
                 energy =   -0.249149
                kinetic =    3.542762
    potential(screened) =   -3.791911
       potential(ionic) =   -7.581078

POLgen: Perturbative polarization orbital with L=  2

POLgen: Polarization orbital for state 2p

   izeta = 1
                     rc =    5.658549
                 energy =    1.109913
                kinetic =    2.304789
    potential(screened) =   -1.194876
       potential(ionic) =   -4.013592
atom: Total number of Sankey-type orbitals: 13

atm_pop: Valence configuration (for local Pseudopot. screening):
 2s( 2.00)                                                            
 2p( 2.00)                                                            
Vna: chval, zval:    4.00000   4.00000

Vna:  Cut-off radius for the neutral-atom potential:   5.658549
comcore: Pseudo-core radius Rcore=  1.791422

atom: _________________________________________________________________________

prinput: Basis input ----------------------------------------------------------

PAO.BasisType split     

%block ChemicalSpeciesLabel
    1    5 B                       # Species index, atomic number, species label
    2    6 C                       # Species index, atomic number, species label
%endblock ChemicalSpeciesLabel

%block PAO.Basis                 # Define Basis set
B                     2                    # Species label, number of l-shells
 n=2   0   2                         # n, l, Nzeta 
   5.422      4.223   
   1.000      1.000   
 n=2   1   2 P   1                   # n, l, Nzeta, Polarization, NzetaPol
   6.790      4.609   
   1.000      1.000   
C                     2                    # Species label, number of l-shells
 n=2   0   2                         # n, l, Nzeta 
   4.633      3.432   
   1.000      1.000   
 n=2   1   2 P   1                   # n, l, Nzeta, Polarization, NzetaPol
   5.659      3.653   
   1.000      1.000   
%endblock PAO.Basis

prinput: ----------------------------------------------------------------------

coor:   Atomic-coordinates input format  =     Fractional

siesta: Atomic coordinates (Bohr) and species
siesta:      6.95932  30.82560   0.00000  1        1
siesta:      9.28770  29.48119   0.00000  1        2
siesta:      2.30256   9.31683   0.00000  1        3
siesta:     -0.02582  10.66124   0.00000  1        4
siesta:     -0.02582  13.34970   0.00000  1        5
siesta:      2.30256  14.69411   0.00000  1        6
siesta:      2.30256  17.38257   0.00000  1        7
siesta:      4.63094  18.72698   0.00000  1        8
siesta:      4.63094  21.41544   0.00000  1        9
siesta:     -2.35420  14.69411   0.00000  1       10
siesta:     -0.02582  18.72698   0.00000  1       11
siesta:      2.30256  22.75985   0.00000  1       12
siesta:      2.30256  25.44831   0.00000  1       13
siesta:      4.63094  29.48119   0.00000  1       14
siesta:     -0.02582  26.79272   0.00000  1       15
siesta:      2.30256  30.82560   0.00000  1       16
siesta:     -0.02582   2.59549   0.00000  2       17
siesta:     -0.02582   5.28395   0.00000  2       18
siesta:     -2.35420  38.89134   0.00000  2       19
siesta:     -2.35420  41.57980   0.00000  2       20
siesta:      2.30256  38.89134   0.00000  2       21
siesta:      2.30256  41.57980   0.00000  2       22
siesta:      4.63094  34.85847   0.00000  2       23
siesta:      4.63094  37.54693   0.00000  2       24
siesta:      6.95932  33.51406   0.00000  2       25
siesta:      9.28770  26.79272   0.00000  2       26
siesta:     -4.68258  34.85847   0.00000  2       27
siesta:     -4.68258  37.54693   0.00000  2       28
siesta:      2.30256   6.62836   0.00000  2       29
siesta:      4.63094  10.66124   0.00000  2       30
siesta:      4.63094  13.34970   0.00000  2       31
siesta:      6.95932  14.69411   0.00000  2       32
siesta:      6.95932  17.38257   0.00000  2       33
siesta:      9.28770  18.72698   0.00000  2       34
siesta:      9.28770  21.41544   0.00000  2       35
siesta:     11.61608  22.75985   0.00000  2       36
siesta:     11.61608  25.44831   0.00000  2       37
siesta:     -2.35420   6.62836   0.00000  2       38
siesta:     -2.35420   9.31683   0.00000  2       39
siesta:      6.95932  22.75985   0.00000  2       40
siesta:      6.95932  25.44831   0.00000  2       41
siesta:     -4.68258  10.66124   0.00000  2       42
siesta:     -4.68258  13.34970   0.00000  2       43
siesta:     -2.35420  17.38257   0.00000  2       44
siesta:     -0.02582  21.41544   0.00000  2       45
siesta:     -7.01096  14.69411   0.00000  2       46
siesta:     -7.01096  17.38257   0.00000  2       47
siesta:     -4.68258  18.72698   0.00000  2       48
siesta:     -4.68258  21.41544   0.00000  2       49
siesta:     -2.35420  22.75985   0.00000  2       50
siesta:     -2.35420  25.44831   0.00000  2       51
siesta:     -9.33934  18.72698   0.00000  2       52
siesta:     -9.33934  21.41544   0.00000  2       53
siesta:     -7.01096  22.75985   0.00000  2       54
siesta:     -7.01096  25.44831   0.00000  2       55
siesta:    -11.66772  22.75985   0.00000  2       56
siesta:    -11.66772  25.44831   0.00000  2       57
siesta:     -9.33934  26.79272   0.00000  2       58
siesta:     -9.33934  29.48119   0.00000  2       59
siesta:      4.63094  26.79272   0.00000  2       60
siesta:     -0.02582  29.48119   0.00000  2       61
siesta:     -4.68258  26.79272   0.00000  2       62
siesta:     -4.68258  29.48119   0.00000  2       63
siesta:      2.30256  33.51406   0.00000  2       64
siesta:     -2.35420  30.82560   0.00000  2       65
siesta:     -2.35420  33.51406   0.00000  2       66
siesta:     -7.01096  30.82560   0.00000  2       67
siesta:     -7.01096  33.51406   0.00000  2       68
siesta:     -0.02582  34.85847   0.00000  2       69
siesta:     -0.02582  37.54693   0.00000  2       70
siesta:     -0.02582  42.92421   0.00000  2       71
siesta:     -0.02582  45.61267   0.00000  2       72

siesta: System type = slab      

initatomlists: Number of atoms, orbitals, and projectors:     72   936  1152

siesta: ******************** Simulation parameters ****************************
siesta:
siesta: The following are some of the parameters of the simulation.
siesta: A complete list of the parameters used, including default values,
siesta: can be found in file out.fdf
siesta:
redata: Non-Collinear-spin run           =     F
redata: SpinPolarized (Up/Down) run      =     F
redata: Number of spin components        =     1
redata: Long output                      =     F
redata: Number of Atomic Species         =        2
redata: Charge density info will appear in .RHO file
redata: Write Mulliken Pop.              =     NO
redata: Mesh Cutoff                      =   200.0000  Ry
redata: Net charge of the system         =     0.0000 |e|
redata: Max. number of SCF Iter          =      500
redata: SCF convergence failure will abort job
redata: Performing Pulay mixing using    =    10 iterations
redata: Mix DM in first SCF step ?       =     F
redata: Write Pulay info on disk?        =     F
redata: Discard 1st Pulay DM after  kick =     F
redata: New DM Mixing Weight             =     0.0500
redata: New DM Occupancy tolerance       = 0.000000000001
redata: No kicks to SCF
redata: DM Mixing Weight for Kicks       =     0.5000
redata: DM Tolerance for SCF             =     0.000100
redata: Require Energy convergence for SCF =     F
redata: DM Energy tolerance for SCF      =     0.000100 eV
redata: Require Harris convergence for SCF =     F
redata: DM Harris energy tolerance for SCF =     0.000100 eV
redata: Using Saved Data (generic)   =     F
redata: Use continuation files for DM    =     T
redata: Neglect nonoverlap interactions  =     F
redata: Method of Calculation            =     Diagonalization
redata: Divide and Conquer               =     T
redata: Electronic Temperature           =     0.0019  Ry
redata: Fix the spin of the system       =     F
redata: Dynamics option                  =     Verlet MD run
redata: Initial MD time step             =        1
redata:   Final MD time step             =        1
redata: Length of MD time step           =     1.0000  fs
redata: Initial Temperature of MD run    =     0.0000  K
redata: Perform a MD quench              =     F
redata: ***********************************************************************
Total number of electrons:   272.000000
Total ionic charge:   272.000000

* ProcessorY, Blocksize:    3  24

k-point displ. along   1 input, could be:     0.50    0.00
k-point displ. along   2 input, could be:     0.50    0.00
 Kpoints in:          231 . Kpoints trimmed:          231

siesta: k-grid: Number of k-points =   231
siesta: k-grid: Cutoff (effective) =     5.000 Ang
siesta: k-grid: Supercell and displacements
siesta: k-grid:   21   0   0      0.500
siesta: k-grid:    0  21   0      0.500
siesta: k-grid:    0   0   1      0.000
Naive supercell factors:     2    2    2

superc: Internal auxiliary supercell:     2 x     2 x     2  =       8
superc: Number of atoms, orbitals, and projectors:    576   7488   9216

* Maximum dynamic memory allocated =     4 MB

siesta:                 ==============================
                            Begin MD step =      1
                        ==============================

superc: Internal auxiliary supercell:     2 x     2 x     2  =       8
superc: Number of atoms, orbitals, and projectors:    576   7488   9216

outcell: Unit cell vectors (Ang):
       12.804619    7.392750    0.000000
        0.000000   14.785500    0.000000
        0.000000    0.000000   10.000000

outcell: Cell vector modules (Ang)   :   14.785500   14.785500   10.000000
outcell: Cell angles (23,13,12) (deg):     90.0000     90.0000     60.0000
outcell: Cell volume (Ang**3)        :   1893.2269
New_DM. Step:     1
Initializing Density Matrix...

InitMesh: MESH =   120 x   120 x    90 =     1296000
InitMesh: Mesh cutoff (required, used) =   200.000   223.865 Ry

* Maximum dynamic memory allocated =   155 MB

stepf: Fermi-Dirac step function

siesta: Program's energy decomposition (eV):
siesta: Ebs     =     -5595.174385
siesta: Eions   =     16354.103692
siesta: Ena     =      4331.554903
siesta: Ekin    =      5534.369168
siesta: Enl     =       774.401016
siesta: DEna    =        -0.000010
siesta: DUscf   =         0.000000
siesta: DUext   =         0.000000
siesta: Exc     =     -4188.267497
siesta: eta*DQ  =         0.000000
siesta: Emadel  =         0.000000
siesta: Emeta   =         0.000000
siesta: Emolmec =         0.000000
siesta: Ekinion =         0.000000
siesta: Eharris =     -9674.446794
siesta: Etot    =     -9902.046112
siesta: FreeEng =     -9902.046112

siesta: iscf   Eharris(eV)      E_KS(eV)   FreeEng(eV)   dDmax  Ef(eV)
siesta:    1    -9674.4468    -9902.0461    -9902.0461  6.9912 -8.2854
timer: Routine,Calls,Time,% = IterSCF        1    3046.851  99.59
elaps: Routine,Calls,Wall,% = IterSCF        1     254.507  99.59
siesta:    2   -14307.4765    -8947.7456    -8947.7926 15.2538 -3.7978
siesta:    3    -9641.4534    -9732.8756    -9732.8917  2.8286 -5.9024
siesta:    4    -9599.8236    -9647.8838    -9647.9497  1.6115 -5.6131
siesta:    5    -9556.3761    -9572.5239    -9572.5412  1.1988 -5.4069
siesta:    6    -9534.3858    -9536.5989    -9536.6208  1.1201 -5.2950
siesta:    7    -9526.2784    -9519.5568    -9519.5722  0.7582 -5.2350
siesta:    8    -9523.3517    -9513.7498    -9513.7849  0.8549 -5.2024
siesta:    9    -9522.2931    -9511.8495    -9511.8934  0.7658 -5.2187
siesta:   10    -9521.3274    -9510.2251    -9510.2823  0.6753 -5.2187
siesta:   11    -9521.5304    -9503.1432    -9503.2023  0.5621 -5.0385
siesta:   12    -9521.2360    -9499.0561    -9499.1326  0.5062 -5.0486
siesta:   13    -9520.8486    -9498.0136    -9498.0841  0.4676 -5.0213
siesta:   14    -9520.1266    -9501.2301    -9501.2866  0.3647 -5.0834
siesta:   15    -9519.8059    -9503.1607    -9503.2144  0.1615 -5.0743
siesta:   16    -9519.6876    -9506.3872    -9506.4628  0.2574 -5.0688
siesta:   17    -9519.5855    -9505.4885    -9505.5587  0.2472 -5.0876
siesta:   18    -9519.3443    -9513.2938    -9513.3650  0.4010 -5.1111
siesta:   19    -9519.1483    -9515.5769    -9515.6388  0.2262 -5.1332
siesta:   20    -9519.1180    -9516.4551    -9516.5305  0.0780 -5.1371
siesta:   21    -9519.1155    -9517.6416    -9517.7213  0.1273 -5.1368
siesta:   22    -9519.1030    -9518.7727    -9518.8498  0.1472 -5.1381
siesta:   23    -9519.0746    -9518.9213    -9518.9996  0.0294 -5.1442
siesta:   24    -9519.0715    -9519.9268    -9520.0070  0.0347 -5.1446
siesta:   25    -9519.0713    -9520.3349    -9520.4152  0.0345 -5.1459
siesta:   26    -9519.0680    -9520.4931    -9520.5732  0.0467 -5.1421
siesta:   27    -9519.0669    -9520.2193    -9520.2992  0.0213 -5.1342
siesta:   28    -9519.0654    -9520.0216    -9520.1023  0.0314 -5.1284
siesta:   29    -9519.0648    -9519.6396    -9519.7200  0.0078 -5.1282
siesta:   30    -9519.0647    -9519.5099    -9519.5904  0.0146 -5.1283
siesta:   31    -9519.0646    -9519.4674    -9519.5478  0.0047 -5.1291
siesta:   32    -9519.0646    -9519.3342    -9519.4145  0.0070 -5.1291
siesta:   33    -9519.0646    -9519.1790    -9519.2593  0.0019 -5.1300
siesta:   34    -9519.0645    -9519.0987    -9519.1791  0.0045 -5.1311
siesta:   35    -9519.0645    -9519.0875    -9519.1679  0.0022 -5.1313
siesta:   36    -9519.0645    -9519.0763    -9519.1567  0.0006 -5.1312
siesta:   37    -9519.0645    -9519.0706    -9519.1510  0.0014 -5.1313
siesta:   38    -9519.0645    -9519.0743    -9519.1546  0.0005 -5.1312
siesta:   39    -9519.0645    -9519.0625    -9519.1428  0.0004 -5.1312
siesta:   40    -9519.0645    -9519.0602    -9519.1405  0.0002 -5.1312
siesta:   41    -9519.0645    -9519.0569    -9519.1373  0.0001 -5.1312
siesta:   42    -9519.0645    -9519.0619    -9519.1422  0.0001 -5.1312

siesta: E_KS(eV) =            -9519.0633

siesta: E_KS - E_eggbox =     -9519.0633

siesta: Atomic forces (eV/Ang):
----------------------------------------
   Tot   -0.177746   -0.150544    0.000000
----------------------------------------
   Max  564.025730
   Res  143.928754    sqrt( Sum f_i^2 / 3N )
----------------------------------------
   Max  564.025730    constrained

Stress-tensor-Voigt (kbar):     -731.67    -2597.70       -0.52        7.35        0.00        0.00
(Free)E + p*V (eV/cell)    -8207.5595
Target enthalpy (eV/cell)    -9519.1436

siesta: Stress tensor (static) (eV/Ang**3):
        -0.456669    0.004587    0.000000
         0.004587   -1.621338    0.000000
         0.000000    0.000000   -0.000325

siesta: Pressure (static):       1109.96317419  kBar

siesta: Stress tensor (total) (eV/Ang**3):
        -0.456669    0.004587    0.000000
         0.004587   -1.621338    0.000000
         0.000000    0.000000   -0.000325

siesta: Pressure (total):       1109.96317419  kBar

siesta: Temp_ion =       0.000 K

* Maximum dynamic memory allocated =   167 MB
Computing bands...

siesta: Program's energy decomposition (eV):
siesta: Ebs     =     -4224.597817
siesta: Eions   =     16354.103692
siesta: Ena     =      4331.554903
siesta: Ekin    =      8374.571939
siesta: Enl     =      -855.587607
siesta: DEna    =      -762.744931
siesta: DUscf   =       101.799050
siesta: DUext   =         0.000000
siesta: Exc     =     -4354.552937
siesta: eta*DQ  =         0.000000
siesta: Emadel  =         0.000000
siesta: Emeta   =         0.000000
siesta: Emolmec =         0.000000
siesta: Ekinion =         0.000000
siesta: Eharris =     -9519.064496
siesta: Etot    =     -9519.063276
siesta: FreeEng =     -9519.143622

siesta: Final energy (eV):
siesta:  Band Struct. =   -4224.597817
siesta:       Kinetic =    8374.571939
siesta:       Hartree =   26946.326664
siesta:    Ext. field =       0.000000
siesta:   Exch.-corr. =   -4354.552937
siesta:  Ion-electron =  -61960.179278
siesta:       Ion-ion =   21474.770336
siesta:       Ekinion =       0.000000
siesta:         Total =   -9519.063276

siesta: Atomic forces (eV/Ang):
siesta:      1    3.980854    6.788676    0.000000
siesta:      2    4.115977   -2.211956    0.000000
siesta:      3   -8.334559 -105.251705    0.000000
siesta:      4    5.773528  383.686547    0.000000
siesta:      5   -0.070517 -104.396236    0.000000
siesta:      6   15.261855  402.728241    0.000000
siesta:      7   15.007526   -1.254947    0.000000
siesta:      8    0.578874   -3.117333    0.000000
siesta:      9    5.064235    4.101492    0.000000
siesta:     10  -16.854055  401.158555    0.000000
siesta:     11   -0.993833  414.210068    0.000000
siesta:     12   -6.403750   -5.453088    0.000000
siesta:     13    5.755580    4.297067    0.000000
siesta:     14   -1.472233   -2.821357    0.000000
siesta:     15   -4.277380    0.301758    0.000000
siesta:     16   15.010595    4.131604    0.000000
siesta:     17   -5.055683  550.266024    0.000000
siesta:     18    2.449689 -128.995738    0.000000
siesta:     19    0.701880  123.979574    0.000000
siesta:     20  -15.026710 -400.682539    0.000000
siesta:     21    2.589721  124.971701    0.000000
siesta:     22   16.747001 -410.977173    0.000000
siesta:     23   23.002560    4.943175    0.000000
siesta:     24   37.042753 -547.714593    0.000000
siesta:     25   -3.572875    4.860107    0.000000
siesta:     26    3.539928   -1.221021    0.000000
siesta:     27  -27.572027    3.829429    0.000000
siesta:     28  -36.510115 -551.108575    0.000000
siesta:     29   14.803598  552.996162    0.000000
siesta:     30   23.799675  543.647957    0.000000
siesta:     31   23.932916   -0.459315    0.000000
siesta:     32   -2.255519   -1.695756    0.000000
siesta:     33    7.140227   -1.793305    0.000000
siesta:     34   -1.789373   -0.587186    0.000000
siesta:     35    3.089176   -1.377692    0.000000
siesta:     36   -0.110147    7.012734    0.000000
siesta:     37   -0.255038   -7.176117    0.000000
siesta:     38   -9.010407  547.102197    0.000000
siesta:     39    7.336161 -115.891586    0.000000
siesta:     40    2.276328    2.183522    0.000000
siesta:     41    0.348415   -1.049266    0.000000
siesta:     42  -30.072554  549.358666    0.000000
siesta:     43  -25.048114    0.339647    0.000000
siesta:     44  -22.686139   -1.055425    0.000000
siesta:     45   -2.804994    1.337645    0.000000
siesta:     46    2.547667   -2.613910    0.000000
siesta:     47   -2.376860    0.239972    0.000000
siesta:     48    1.441255    1.878731    0.000000
siesta:     49   -0.357503    0.189658    0.000000
siesta:     50   -0.163039   -0.538726    0.000000
siesta:     51   -2.586901   -0.566184    0.000000
siesta:     52    0.889942   -0.652567    0.000000
siesta:     53   -1.867258   -1.893961    0.000000
siesta:     54    0.240581    0.937527    0.000000
siesta:     55   -0.012478   -0.615888    0.000000
siesta:     56    0.144200    6.939676    0.000000
siesta:     57    0.318547   -6.844455    0.000000
siesta:     58   -2.264420    1.726095    0.000000
siesta:     59    0.836696    0.468170    0.000000
siesta:     60    1.940098   -2.550228    0.000000
siesta:     61    2.906263 -558.089313    0.000000
siesta:     62   -0.283895   -0.335422    0.000000
siesta:     63    0.873897   -1.830487    0.000000
siesta:     64   25.651745 -564.025730    0.000000
siesta:     65  -21.521818    5.154186    0.000000
siesta:     66  -29.909518 -556.741649    0.000000
siesta:     67   -1.803711    0.033915    0.000000
siesta:     68    2.856127    2.354610    0.000000
siesta:     69    3.665845  125.013658    0.000000
siesta:     70   -2.188029 -403.095975    0.000000
siesta:     71    3.113756  121.664791    0.000000
siesta:     72   -1.441969 -408.297674    0.000000
siesta: ----------------------------------------
siesta:    Tot   -0.177746   -0.150544    0.000000

siesta: Stress tensor (static) (eV/Ang**3):
siesta:    -0.456669    0.004587    0.000000
siesta:     0.004587   -1.621338    0.000000
siesta:     0.000000    0.000000   -0.000325

siesta: Cell volume =       1893.226884 Ang**3

siesta: Pressure (static):
siesta:                Solid            Molecule  Units
siesta:           0.00754523          0.11033686  Ry/Bohr**3
siesta:           0.69277703         10.13075515  eV/Ang**3
siesta:        1109.96317419      16231.43462957  kBar
(Free)E+ p_basis*V_orbitals  =       -9483.350750
(Free)Eharris+ p_basis*V_orbitals  =       -9483.353366

siesta: Electric dipole (a.u.)  =    0.000000    0.000000    0.000000
siesta: Electric dipole (Debye) =    0.000000    0.000000    0.000000

* Maximum dynamic memory allocated : Node    0 =   167 MB
* Maximum dynamic memory allocated : Node    1 =    66 MB
* Maximum dynamic memory allocated : Node    2 =    68 MB
* Maximum dynamic memory allocated : Node    3 =   154 MB
* Maximum dynamic memory allocated : Node    4 =   167 MB
* Maximum dynamic memory allocated : Node    5 =    62 MB
* Maximum dynamic memory allocated : Node    6 =    63 MB
* Maximum dynamic memory allocated : Node    7 =   157 MB
* Maximum dynamic memory allocated : Node    8 =   155 MB
* Maximum dynamic memory allocated : Node    9 =    61 MB
* Maximum dynamic memory allocated : Node   10 =    63 MB
* Maximum dynamic memory allocated : Node   11 =   146 MB

* Maximum memory occured during matrixMtoO                    

timer: CPU execution times:
timer:  Routine       Calls   Time/call    Tot.time        %
timer:  siesta            1  125166.241  125166.241   100.00
timer:  Setup             1       3.401       3.401     0.00
timer:  bands             3     226.210     678.630     0.54
timer:  writewave         1       0.024       0.024     0.00
timer:  KSV_init          1       0.003       0.003     0.00
timer:  IterMD            1  124477.251  124477.251    99.45
timer:  hsparse           1       0.281       0.281     0.00
timer:  overlap           1       7.421       7.421     0.01
timer:  IterSCF          42    2959.976  124318.984    99.32
timer:  kinefsm           2       3.777       7.553     0.01
timer:  nlefsm            2      20.033      40.065     0.03
timer:  DHSCF            43      81.065    3485.806     2.78
timer:  DHSCF1            1       1.192       1.192     0.00
timer:  DHSCF2            1      33.001      33.001     0.03
timer:  REORD           346       0.002       0.860     0.00
timer:  POISON           44       0.449      19.760     0.02
timer:  DHSCF3           43      79.607    3423.113     2.73
timer:  rhoofd           43      17.347     745.915     0.60
timer:  cellXC           43       2.446     105.183     0.08
timer:  vmat             43      37.678    1620.166     1.29
timer:  MolMec            2       0.000       0.000     0.00
timer:  diagon           42    2877.808  120867.944    96.57
timer:  c-eigval       9823       5.594   54952.088    43.90
timer:  c-buildHS      9823       0.036     351.269     0.28
timer:  cdiag         19525       5.696  111208.804    88.85
timer:  cdiag1        19525       0.261    5090.964     4.07
timer:  cdiag2        19525       1.840   35929.152    28.71
timer:  cdiag3        19525       3.381   66016.171    52.74
timer:  cdiag4        19525       0.087    1702.716     1.36
timer:  c-eigvec       9702       5.865   56901.484    45.46
timer:  c-buildD       9702       0.994    9639.438     7.70
timer:  DHSCF4            1      28.230      28.230     0.02
timer:  dfscf             1      26.128      26.128     0.02
timer:  overfsm           1       0.328       0.328     0.00
timer:  optical           1       6.349       6.349     0.01
  

elaps: ELAPSED times:
elaps:  Routine       Calls   Time/call    Tot.time        %
elaps:  siesta            1   10455.405   10455.405   100.00
elaps:  Setup             1       0.284       0.284     0.00
elaps:  bands             3      18.910      56.731     0.54
elaps:  writewave         1       0.002       0.002     0.00
elaps:  KSV_init          1       0.000       0.000     0.00
elaps:  IterMD            1   10397.855   10397.855    99.45
elaps:  hsparse           1       0.027       0.027     0.00
elaps:  overlap           1       0.715       0.715     0.01
elaps:  IterSCF          42     247.253   10384.635    99.32
elaps:  kinefsm           2       0.366       0.732     0.01
elaps:  nlefsm            2       1.757       3.514     0.03
elaps:  DHSCF            43       6.820     293.253     2.80
elaps:  DHSCF1            1       0.101       0.101     0.00
elaps:  DHSCF2            1       2.755       2.755     0.03
elaps:  REORD           346       0.000       0.104     0.00
elaps:  POISON           44       0.038       1.662     0.02
elaps:  DHSCF3           43       6.651     285.981     2.74
elaps:  rhoofd           43       2.917     125.435     1.20
elaps:  cellXC           43       0.204       8.767     0.08
elaps:  vmat             43       3.148     135.371     1.29
elaps:  MolMec            2       0.000       0.000     0.00
elaps:  diagon           42     240.397   10096.662    96.57
elaps:  c-eigval       9823       0.467    4590.399    43.90
elaps:  c-buildHS      9823       0.004      37.459     0.36
elaps:  cdiag         19525       0.471    9188.076    87.88
elaps:  cdiag1        19525       0.021     415.977     3.98
elaps:  cdiag2        19525       0.154    3004.148    28.73
elaps:  cdiag3        19525       0.283    5522.755    52.82
elaps:  cdiag4        19525       0.007     136.701     1.31
elaps:  c-eigvec       9702       0.481    4666.808    44.64
elaps:  c-buildD       9702       0.092     891.088     8.52
elaps:  DHSCF4            1       4.373       4.373     0.04
elaps:  dfscf             1       4.117       4.117     0.04
elaps:  overfsm           1       0.034       0.034     0.00
elaps:  optical           1       0.000       0.000     0.00
  
>> End of run:   3-MAY-2016   7:26:33
