Siesta Version:                                        siesta-3.2-pl-3
Architecture  : x86_64-unknown-linux-gnu--unknown
Compiler flags: mpiifort -g -O2 -fPIC -xSSE4.1 -fp-model source -shared-intel 
PARALLEL version

* Running on   12 nodes in parallel
>> Start of run:   1-MAY-2016  11:51:43

                           ***********************       
                           *  WELCOME TO SIESTA  *       
                           ***********************       

reinit: Reading from standard input
************************** Dump of input data file ****************************
#(1) General system descriptors
SystemName            GRP_doping    # Descriptive name of the system
SystemLabel           GRP_doping    # Short name for naming files
%include STRUCT.fdf
%include KPT.fdf
%include BASIS.fdf
#%include TS.fdf # for transiesta calculation
#(4) DFT, Grid, SCF
XC.functional         GGA           # LDA or GGA (default = LDA)
XC.authors            PBE           # CA (Ceperley-Aldr) = PZ
                                    #    (Perdew-Zunger) - LDA - Default
                                    # PW92 (Perdew-Wang-92) - LDA
                                    # PBE (Perdew-Burke-Ernzerhof) - GGA
MeshCutoff            200.000000    Ry      # Default: 50.0 Ry ~ 0.444 Bohr
                                    #         100.0 Ry ~ 0.314 Bohr
MaxSCFIterations      500           # Default: 50
DM.MixingWeight       0.05          # Default: 0.25
DM.NumberPulay        10            # Default: 0
DM.PulayOnFile        F             # SystemLabel.P1, SystemLabel.P2
DM.Tolerance          1.d-4         # Default: 1.d-4
DM.UseSaveDM          .true.        # because of the bug
SCFMustConverge       .true.
NeglNonOverlapInt     F             # Default: F
#(5) Eigenvalue problem: order-N or diagonalization
SolutionMethod        Diagon        # or Transiesta
ElectronicTemperature 300.0 K       # Default: 300.0 K
#(6) Molecular dynamics and relaxations
#MD.TypeOfRun          CG            # Type of dynamics:
#MD.VariableCell       F
#MD.NumCGsteps         0           # 0 for single-point / 100 for gopt
#MD.MaxCGDispl         0.2 Bohr      # Default: 0.2 Bohr
#MD.MaxForceTol        0.02 eV/Ang   # Default: 0.04 eV/Ang
#MD.MaxStressTol       1.0 GPa       # Default: 1.0 GPa
# Geometry Constraints
#%block GeometryConstraints
#	position from 1 to 44
#%endblock GeometryConstraints
BandLinesScale   pi/a
%block BandLines
 1   0.00000000  0.00000000  0.00000000
50   0.00000000  0.07809418  0.00000000
50   0.04509075  0.07809242  0.00000000
20   0.00000000  0.00000000  0.00000000
%endblock BandLines
************************** End of input data file *****************************

reinit: -----------------------------------------------------------------------
reinit: System Name: GRP_doping
reinit: -----------------------------------------------------------------------
reinit: System Label: GRP_doping                                                  
reinit: -----------------------------------------------------------------------

initatom: Reading input for the pseudopotentials and atomic orbitals ----------
 Species number:            1  Label: B Atomic number:           5
 Species number:            2  Label: C Atomic number:           6
Ground state valence configuration:   2s02  2p01
Reading pseudopotential information in formatted form from B.psf

Valence configuration for pseudopotential generation:
2s( 2.00) rc: 1.74
2p( 1.00) rc: 1.74
3d( 0.00) rc: 1.74
4f( 0.00) rc: 1.74
Ground state valence configuration:   2s02  2p02
Reading pseudopotential information in formatted form from C.psf

Valence configuration for pseudopotential generation:
2s( 2.00) rc: 1.54
2p( 2.00) rc: 1.54
3d( 0.00) rc: 1.54
4f( 0.00) rc: 1.54
For B, standard SIESTA heuristics set lmxkb to 3
 (one more than the basis l, including polarization orbitals).
Use PS.lmax or PS.KBprojectors blocks to override.
For C, standard SIESTA heuristics set lmxkb to 3
 (one more than the basis l, including polarization orbitals).
Use PS.lmax or PS.KBprojectors blocks to override.

<basis_specs>
===============================================================================
B                    Z=   5    Mass=  10.810        Charge= 0.17977+309
Lmxo=1 Lmxkb= 3    BasisType=split      Semic=F
L=0  Nsemic=0  Cnfigmx=2
          n=1  nzeta=2  polorb=0
            splnorm:   0.15000    
               vcte:    0.0000    
               rinn:    0.0000    
                rcs:    0.0000      0.0000    
            lambdas:    1.0000      1.0000    
L=1  Nsemic=0  Cnfigmx=2
          n=1  nzeta=2  polorb=1
            splnorm:   0.15000    
               vcte:    0.0000    
               rinn:    0.0000    
                rcs:    0.0000      0.0000    
            lambdas:    1.0000      1.0000    
-------------------------------------------------------------------------------
L=0  Nkbl=1  erefs: 0.17977+309
L=1  Nkbl=1  erefs: 0.17977+309
L=2  Nkbl=1  erefs: 0.17977+309
L=3  Nkbl=1  erefs: 0.17977+309
===============================================================================
</basis_specs>

atom: Called for B                     (Z =   5)

read_vps: Pseudopotential generation method:
read_vps: ATM3      Troullier-Martins                       
Total valence charge:    3.00000

read_vps: Pseudopotential includes a core correction:
read_vps: Pseudo-core for xc-correction

xc_check: Exchange-correlation functional:
xc_check: GGA Perdew, Burke & Ernzerhof 1996
V l=0 = -2*Zval/r beyond r=  1.7165
V l=1 = -2*Zval/r beyond r=  1.7165
V l=2 = -2*Zval/r beyond r=  1.7165
V l=3 = -2*Zval/r beyond r=  1.6951
All V_l potentials equal beyond r=  1.7165
This should be close to max(r_c) in ps generation
All pots = -2*Zval/r beyond r=  1.7165

VLOCAL1: 99.0% of the norm of Vloc inside     14.733 Ry
VLOCAL1: 99.9% of the norm of Vloc inside     33.577 Ry
atom: Maximum radius for 4*pi*r*r*local-pseudopot. charge    2.04484
atom: Maximum radius for r*vlocal+2*Zval:    1.75994
GHOST: No ghost state for L =  0
GHOST: No ghost state for L =  1
GHOST: No ghost state for L =  2
GHOST: No ghost state for L =  3

KBgen: Kleinman-Bylander projectors: 
   l= 0   rc=  1.897051   el= -0.693730   Ekb=  4.595746   kbcos=  0.286105
   l= 1   rc=  1.920920   el= -0.265236   Ekb= -2.350715   kbcos= -0.315747
   l= 2   rc=  2.044840   el=  0.002055   Ekb= -0.690767   kbcos= -0.013822
   l= 3   rc=  2.149707   el=  0.003188   Ekb= -0.315358   kbcos= -0.002055

KBgen: Total number of  Kleinman-Bylander projectors:   16
atom: -------------------------------------------------------------------------

atom: SANKEY-TYPE ORBITALS:
atom: Selected multiple-zeta basis: split     

SPLIT: Orbitals with angular momentum L= 0

SPLIT: Basis orbitals for state 2s

SPLIT: PAO cut-off radius determined from an
SPLIT: energy shift=  0.007350 Ry

   izeta = 1
                 lambda =    1.000000
                     rc =    5.422032
                 energy =   -0.686029
                kinetic =    0.576707
    potential(screened) =   -1.262736
       potential(ionic) =   -3.271094

   izeta = 2
                 rmatch =    4.222573
              splitnorm =    0.150000
                 energy =   -0.602132
                kinetic =    0.858975
    potential(screened) =   -1.461107
       potential(ionic) =   -3.582536

SPLIT: Orbitals with angular momentum L= 1

SPLIT: Basis orbitals for state 2p

SPLIT: PAO cut-off radius determined from an
SPLIT: energy shift=  0.007350 Ry

   izeta = 1
                 lambda =    1.000000
                     rc =    6.790259
                 energy =   -0.258578
                kinetic =    1.481412
    potential(screened) =   -1.739989
       potential(ionic) =   -3.657461

   izeta = 2
                 rmatch =    4.608740
              splitnorm =    0.150000
                 energy =   -0.173757
                kinetic =    2.186690
    potential(screened) =   -2.360447
       potential(ionic) =   -4.464260

POLgen: Perturbative polarization orbital with L=  2

POLgen: Polarization orbital for state 2p

   izeta = 1
                     rc =    6.790259
                 energy =    0.684082
                kinetic =    1.471481
    potential(screened) =   -0.787399
       potential(ionic) =   -2.406985
atom: Total number of Sankey-type orbitals: 13

atm_pop: Valence configuration (for local Pseudopot. screening):
 2s( 2.00)                                                            
 2p( 1.00)                                                            
Vna: chval, zval:    3.00000   3.00000

Vna:  Cut-off radius for the neutral-atom potential:   6.790259
comcore: Pseudo-core radius Rcore=  2.122997

atom: _________________________________________________________________________

<basis_specs>
===============================================================================
C                    Z=   6    Mass=  12.010        Charge= 0.17977+309
Lmxo=1 Lmxkb= 3    BasisType=split      Semic=F
L=0  Nsemic=0  Cnfigmx=2
          n=1  nzeta=2  polorb=0
            splnorm:   0.15000    
               vcte:    0.0000    
               rinn:    0.0000    
                rcs:    0.0000      0.0000    
            lambdas:    1.0000      1.0000    
L=1  Nsemic=0  Cnfigmx=2
          n=1  nzeta=2  polorb=1
            splnorm:   0.15000    
               vcte:    0.0000    
               rinn:    0.0000    
                rcs:    0.0000      0.0000    
            lambdas:    1.0000      1.0000    
-------------------------------------------------------------------------------
L=0  Nkbl=1  erefs: 0.17977+309
L=1  Nkbl=1  erefs: 0.17977+309
L=2  Nkbl=1  erefs: 0.17977+309
L=3  Nkbl=1  erefs: 0.17977+309
===============================================================================
</basis_specs>

atom: Called for C                     (Z =   6)

read_vps: Pseudopotential generation method:
read_vps: ATM3      Troullier-Martins                       
Total valence charge:    4.00000

read_vps: Pseudopotential includes a core correction:
read_vps: Pseudo-core for xc-correction

xc_check: Exchange-correlation functional:
xc_check: GGA Perdew, Burke & Ernzerhof 1996
V l=0 = -2*Zval/r beyond r=  1.5227
V l=1 = -2*Zval/r beyond r=  1.5227
V l=2 = -2*Zval/r beyond r=  1.5227
V l=3 = -2*Zval/r beyond r=  1.5038
All V_l potentials equal beyond r=  1.5227
This should be close to max(r_c) in ps generation
All pots = -2*Zval/r beyond r=  1.5227

VLOCAL1: 99.0% of the norm of Vloc inside     18.722 Ry
VLOCAL1: 99.9% of the norm of Vloc inside     42.668 Ry
atom: Maximum radius for 4*pi*r*r*local-pseudopot. charge    1.83678
atom: Maximum radius for r*vlocal+2*Zval:    1.58088
GHOST: No ghost state for L =  0
GHOST: No ghost state for L =  1
GHOST: No ghost state for L =  2
GHOST: No ghost state for L =  3

KBgen: Kleinman-Bylander projectors: 
   l= 0   rc=  1.704034   el= -1.009801   Ekb=  5.335044   kbcos=  0.316824
   l= 1   rc=  1.704034   el= -0.388707   Ekb= -3.785862   kbcos= -0.366464
   l= 2   rc=  1.791422   el=  0.001971   Ekb= -0.970471   kbcos= -0.009212
   l= 3   rc=  1.859892   el=  0.003065   Ekb= -0.399525   kbcos= -0.001223

KBgen: Total number of  Kleinman-Bylander projectors:   16
atom: -------------------------------------------------------------------------

atom: SANKEY-TYPE ORBITALS:
atom: Selected multiple-zeta basis: split     

SPLIT: Orbitals with angular momentum L= 0

SPLIT: Basis orbitals for state 2s

SPLIT: PAO cut-off radius determined from an
SPLIT: energy shift=  0.007350 Ry

   izeta = 1
                 lambda =    1.000000
                     rc =    4.632753
                 energy =   -1.002270
                kinetic =    0.855760
    potential(screened) =   -1.858031
       potential(ionic) =   -5.417575

   izeta = 2
                 rmatch =    3.431921
              splitnorm =    0.150000
                 energy =   -0.867111
                kinetic =    1.300804
    potential(screened) =   -2.167915
       potential(ionic) =   -5.962684

SPLIT: Orbitals with angular momentum L= 1

SPLIT: Basis orbitals for state 2p

SPLIT: PAO cut-off radius determined from an
SPLIT: energy shift=  0.007350 Ry

   izeta = 1
                 lambda =    1.000000
                     rc =    5.658549
                 energy =   -0.381140
                kinetic =    2.399701
    potential(screened) =   -2.780841
       potential(ionic) =   -6.206085

   izeta = 2
                 rmatch =    3.653288
              splitnorm =    0.150000
                 energy =   -0.249149
                kinetic =    3.542762
    potential(screened) =   -3.791911
       potential(ionic) =   -7.581078

POLgen: Perturbative polarization orbital with L=  2

POLgen: Polarization orbital for state 2p

   izeta = 1
                     rc =    5.658549
                 energy =    1.109913
                kinetic =    2.304789
    potential(screened) =   -1.194876
       potential(ionic) =   -4.013592
atom: Total number of Sankey-type orbitals: 13

atm_pop: Valence configuration (for local Pseudopot. screening):
 2s( 2.00)                                                            
 2p( 2.00)                                                            
Vna: chval, zval:    4.00000   4.00000

Vna:  Cut-off radius for the neutral-atom potential:   5.658549
comcore: Pseudo-core radius Rcore=  1.791422

atom: _________________________________________________________________________

prinput: Basis input ----------------------------------------------------------

PAO.BasisType split     

%block ChemicalSpeciesLabel
    1    5 B                       # Species index, atomic number, species label
    2    6 C                       # Species index, atomic number, species label
%endblock ChemicalSpeciesLabel

%block PAO.Basis                 # Define Basis set
B                     2                    # Species label, number of l-shells
 n=2   0   2                         # n, l, Nzeta 
   5.422      4.223   
   1.000      1.000   
 n=2   1   2 P   1                   # n, l, Nzeta, Polarization, NzetaPol
   6.790      4.609   
   1.000      1.000   
C                     2                    # Species label, number of l-shells
 n=2   0   2                         # n, l, Nzeta 
   4.633      3.432   
   1.000      1.000   
 n=2   1   2 P   1                   # n, l, Nzeta, Polarization, NzetaPol
   5.659      3.653   
   1.000      1.000   
%endblock PAO.Basis

prinput: ----------------------------------------------------------------------

coor:   Atomic-coordinates input format  =     Fractional

siesta: Atomic coordinates (Bohr) and species
siesta:     -0.02582   2.59549   0.00000  1        1
siesta:     -0.02582   5.28395   0.00000  1        2
siesta:      2.30256   6.62836   0.00000  1        3
siesta:      2.30256   9.31683   0.00000  1        4
siesta:      4.63094  10.66124   0.00000  1        5
siesta:      4.63094  13.34970   0.00000  1        6
siesta:      6.95932  14.69411   0.00000  1        7
siesta:      6.95932  17.38257   0.00000  1        8
siesta:      9.28770  18.72698   0.00000  1        9
siesta:      9.28770  21.41544   0.00000  1       10
siesta:     11.61608  22.75985   0.00000  1       11
siesta:     11.61608  25.44831   0.00000  1       12
siesta:     -2.35420   6.62836   0.00000  1       13
siesta:     -2.35420   9.31683   0.00000  1       14
siesta:     -0.02582  10.66124   0.00000  1       15
siesta:     -0.02582  13.34970   0.00000  1       16
siesta:      2.30256  14.69411   0.00000  1       17
siesta:     -2.35420  38.89134   0.00000  2       18
siesta:     -2.35420  41.57980   0.00000  2       19
siesta:      2.30256  38.89134   0.00000  2       20
siesta:      2.30256  41.57980   0.00000  2       21
siesta:      4.63094  34.85847   0.00000  2       22
siesta:      4.63094  37.54693   0.00000  2       23
siesta:      6.95932  30.82560   0.00000  2       24
siesta:      6.95932  33.51406   0.00000  2       25
siesta:      9.28770  26.79272   0.00000  2       26
siesta:      9.28770  29.48119   0.00000  2       27
siesta:     -4.68258  34.85847   0.00000  2       28
siesta:     -4.68258  37.54693   0.00000  2       29
siesta:      2.30256  17.38257   0.00000  2       30
siesta:      4.63094  18.72698   0.00000  2       31
siesta:      4.63094  21.41544   0.00000  2       32
siesta:      6.95932  22.75985   0.00000  2       33
siesta:      6.95932  25.44831   0.00000  2       34
siesta:     -4.68258  10.66124   0.00000  2       35
siesta:     -4.68258  13.34970   0.00000  2       36
siesta:     -2.35420  14.69411   0.00000  2       37
siesta:     -2.35420  17.38257   0.00000  2       38
siesta:     -0.02582  18.72698   0.00000  2       39
siesta:     -0.02582  21.41544   0.00000  2       40
siesta:      2.30256  22.75985   0.00000  2       41
siesta:      2.30256  25.44831   0.00000  2       42
siesta:     -7.01096  14.69411   0.00000  2       43
siesta:     -7.01096  17.38257   0.00000  2       44
siesta:     -4.68258  18.72698   0.00000  2       45
siesta:     -4.68258  21.41544   0.00000  2       46
siesta:     -2.35420  22.75985   0.00000  2       47
siesta:     -2.35420  25.44831   0.00000  2       48
siesta:     -9.33934  18.72698   0.00000  2       49
siesta:     -9.33934  21.41544   0.00000  2       50
siesta:     -7.01096  22.75985   0.00000  2       51
siesta:     -7.01096  25.44831   0.00000  2       52
siesta:    -11.66772  22.75985   0.00000  2       53
siesta:    -11.66772  25.44831   0.00000  2       54
siesta:     -9.33934  26.79272   0.00000  2       55
siesta:     -9.33934  29.48119   0.00000  2       56
siesta:      4.63094  26.79272   0.00000  2       57
siesta:      4.63094  29.48119   0.00000  2       58
siesta:     -0.02582  26.79272   0.00000  2       59
siesta:     -0.02582  29.48119   0.00000  2       60
siesta:     -4.68258  26.79272   0.00000  2       61
siesta:     -4.68258  29.48119   0.00000  2       62
siesta:      2.30256  30.82560   0.00000  2       63
siesta:      2.30256  33.51406   0.00000  2       64
siesta:     -2.35420  30.82560   0.00000  2       65
siesta:     -2.35420  33.51406   0.00000  2       66
siesta:     -7.01096  30.82560   0.00000  2       67
siesta:     -7.01096  33.51406   0.00000  2       68
siesta:     -0.02582  34.85847   0.00000  2       69
siesta:     -0.02582  37.54693   0.00000  2       70
siesta:     -0.02582  42.92421   0.00000  2       71
siesta:     -0.02582  45.61267   0.00000  2       72

siesta: System type = slab      

initatomlists: Number of atoms, orbitals, and projectors:     72   936  1152

siesta: ******************** Simulation parameters ****************************
siesta:
siesta: The following are some of the parameters of the simulation.
siesta: A complete list of the parameters used, including default values,
siesta: can be found in file out.fdf
siesta:
redata: Non-Collinear-spin run           =     F
redata: SpinPolarized (Up/Down) run      =     F
redata: Number of spin components        =     1
redata: Long output                      =     F
redata: Number of Atomic Species         =        2
redata: Charge density info will appear in .RHO file
redata: Write Mulliken Pop.              =     NO
redata: Mesh Cutoff                      =   200.0000  Ry
redata: Net charge of the system         =     0.0000 |e|
redata: Max. number of SCF Iter          =      500
redata: SCF convergence failure will abort job
redata: Performing Pulay mixing using    =    10 iterations
redata: Mix DM in first SCF step ?       =     F
redata: Write Pulay info on disk?        =     F
redata: Discard 1st Pulay DM after  kick =     F
redata: New DM Mixing Weight             =     0.0500
redata: New DM Occupancy tolerance       = 0.000000000001
redata: No kicks to SCF
redata: DM Mixing Weight for Kicks       =     0.5000
redata: DM Tolerance for SCF             =     0.000100
redata: Require Energy convergence for SCF =     F
redata: DM Energy tolerance for SCF      =     0.000100 eV
redata: Require Harris convergence for SCF =     F
redata: DM Harris energy tolerance for SCF =     0.000100 eV
redata: Using Saved Data (generic)   =     F
redata: Use continuation files for DM    =     T
redata: Neglect nonoverlap interactions  =     F
redata: Method of Calculation            =     Diagonalization
redata: Divide and Conquer               =     T
redata: Electronic Temperature           =     0.0019  Ry
redata: Fix the spin of the system       =     F
redata: Dynamics option                  =     Verlet MD run
redata: Initial MD time step             =        1
redata:   Final MD time step             =        1
redata: Length of MD time step           =     1.0000  fs
redata: Initial Temperature of MD run    =     0.0000  K
redata: Perform a MD quench              =     F
redata: ***********************************************************************
Total number of electrons:   271.000000
Total ionic charge:   271.000000

* ProcessorY, Blocksize:    3  24

k-point displ. along   1 input, could be:     0.50    0.00
k-point displ. along   2 input, could be:     0.50    0.00
 Kpoints in:          231 . Kpoints trimmed:          231

siesta: k-grid: Number of k-points =   231
siesta: k-grid: Cutoff (effective) =     5.000 Ang
siesta: k-grid: Supercell and displacements
siesta: k-grid:   21   0   0      0.500
siesta: k-grid:    0  21   0      0.500
siesta: k-grid:    0   0   1      0.000
Naive supercell factors:     2    2    2

superc: Internal auxiliary supercell:     2 x     2 x     2  =       8
superc: Number of atoms, orbitals, and projectors:    576   7488   9216

* Maximum dynamic memory allocated =     4 MB

siesta:                 ==============================
                            Begin MD step =      1
                        ==============================

superc: Internal auxiliary supercell:     2 x     2 x     2  =       8
superc: Number of atoms, orbitals, and projectors:    576   7488   9216

outcell: Unit cell vectors (Ang):
       12.804619    7.392750    0.000000
        0.000000   14.785500    0.000000
        0.000000    0.000000   10.000000

outcell: Cell vector modules (Ang)   :   14.785500   14.785500   10.000000
outcell: Cell angles (23,13,12) (deg):     90.0000     90.0000     60.0000
outcell: Cell volume (Ang**3)        :   1893.2269
New_DM. Step:     1
Initializing Density Matrix...

InitMesh: MESH =   120 x   120 x    90 =     1296000
InitMesh: Mesh cutoff (required, used) =   200.000   223.865 Ry

* Maximum dynamic memory allocated =   161 MB

stepf: Fermi-Dirac step function

siesta: Program's energy decomposition (eV):
siesta: Ebs     =     -5541.149133
siesta: Eions   =     16226.046981
siesta: Ena     =      4307.586856
siesta: Ekin    =      5481.631332
siesta: Enl     =       788.726250
siesta: DEna    =        -0.000009
siesta: DUscf   =         0.000000
siesta: DUext   =         0.000000
siesta: Exc     =     -4179.697983
siesta: eta*DQ  =         0.000000
siesta: Emadel  =         0.000000
siesta: Emeta   =         0.000000
siesta: Emolmec =         0.000000
siesta: Ekinion =         0.000000
siesta: Eharris =     -9662.991268
siesta: Etot    =     -9827.800535
siesta: FreeEng =     -9827.800535

siesta: iscf   Eharris(eV)      E_KS(eV)   FreeEng(eV)   dDmax  Ef(eV)
siesta:    1    -9662.9913    -9827.8005    -9827.8005  7.8459 -8.3292
timer: Routine,Calls,Time,% = IterSCF        1    5428.982  99.77
elaps: Routine,Calls,Wall,% = IterSCF        1     473.203  99.77
siesta:    2   -16141.8528    -8610.1391    -8610.2088 14.1038 -8.0717
siesta:    3    -9966.3369    -9586.6053    -9586.6421  2.1948 -4.3213
siesta:    4    -9737.7515    -9573.9329    -9573.9602  1.5575 -4.7499
siesta:    5    -9682.5487    -9553.3625    -9553.4075  1.5478 -4.2642
siesta:    6    -9635.6982    -9534.5800    -9534.6416  1.5146 -4.4387
siesta:    7    -9567.8655    -9514.1919    -9514.2289  1.3890 -4.4341
siesta:    8    -9523.4354    -9504.4096    -9504.4494  1.1876 -4.6290
siesta:    9    -9513.0603    -9496.1125    -9496.1663  1.0737 -4.5320
siesta:   10    -9505.1766    -9490.4343    -9490.4717  0.8579 -4.6011
siesta:   11    -9504.0724    -9484.9092    -9484.9235  0.8104 -4.5888
siesta:   12    -9502.1164    -9472.9720    -9473.0529  0.6338 -4.5401
siesta:   13    -9501.3157    -9467.4363    -9467.4600  0.5857 -4.6181
siesta:   14    -9500.8780    -9471.2890    -9471.3662  0.5235 -4.6251
siesta:   15    -9502.7626    -9473.4010    -9473.4755  0.9784 -4.8713
siesta:   16    -9501.1631    -9473.6254    -9473.6521  0.8329 -4.8329
siesta:   17    -9501.0904    -9473.1107    -9473.1389  0.5832 -4.8611
siesta:   18    -9500.8258    -9473.6265    -9473.6782  0.5868 -4.8298
siesta:   19    -9500.0587    -9477.7435    -9477.7987  0.3169 -4.7499
siesta:   20    -9499.8911    -9479.5557    -9479.6197  0.3168 -4.7804
siesta:   21    -9500.0730    -9479.5095    -9479.5841  0.3305 -4.7841
siesta:   22    -9500.0342    -9477.4791    -9477.5542  0.5203 -4.7984
siesta:   23    -9499.7501    -9477.6579    -9477.7316  0.2665 -4.7211
siesta:   24    -9499.5634    -9478.4177    -9478.4732  0.2635 -4.7308
siesta:   25    -9499.5742    -9478.6426    -9478.7208  0.2656 -4.7251
siesta:   26    -9499.5954    -9477.9430    -9478.0140  0.2751 -4.7467
siesta:   27    -9499.6502    -9479.0261    -9479.1156  0.1491 -4.7711
siesta:   28    -9499.6510    -9479.0008    -9479.0943  0.1498 -4.7704
siesta:   29    -9499.6479    -9479.4326    -9479.5245  0.1682 -4.7729
siesta:   30    -9499.6515    -9478.4900    -9478.5798  0.2059 -4.7701
siesta:   31    -9499.5573    -9478.6591    -9478.7456  0.2792 -4.7498
siesta:   32    -9499.5121    -9478.9129    -9479.0170  0.1937 -4.7531
siesta:   33    -9499.4609    -9480.1702    -9480.2544  0.4417 -4.7345
siesta:   34    -9499.3902    -9483.7227    -9483.8377  0.1576 -4.7680
siesta:   35    -9499.3891    -9484.8300    -9484.9254  0.1125 -4.7458
siesta:   36    -9499.3912    -9490.1107    -9490.1961  0.1531 -4.7623
siesta:   37    -9499.3660    -9491.4516    -9491.5488  0.1188 -4.7553
siesta:   38    -9499.3481    -9492.6641    -9492.7573  0.1004 -4.7615
siesta:   39    -9499.3500    -9493.5415    -9493.6356  0.0950 -4.7600
siesta:   40    -9499.3492    -9493.4651    -9493.5589  0.0941 -4.7584
siesta:   41    -9499.3501    -9493.4485    -9493.5439  0.0966 -4.7589
siesta:   42    -9499.3385    -9493.8840    -9493.9789  0.0840 -4.7630
siesta:   43    -9499.3195    -9496.2420    -9496.3390  0.0495 -4.7647
siesta:   44    -9499.3218    -9498.9281    -9499.0284  0.0525 -4.7708
siesta:   45    -9499.3131    -9499.3830    -9499.4847  0.0430 -4.7732
siesta:   46    -9499.3144    -9498.9154    -9499.0212  0.0271 -4.7743
siesta:   47    -9499.3117    -9499.2776    -9499.3800  0.0099 -4.7738
siesta:   48    -9499.3128    -9499.4041    -9499.5088  0.0174 -4.7732
siesta:   49    -9499.3109    -9499.7135    -9499.8164  0.0056 -4.7725
siesta:   50    -9499.3105    -9499.8894    -9499.9939  0.0069 -4.7725
siesta:   51    -9499.3101    -9499.6745    -9499.7794  0.0025 -4.7726
siesta:   52    -9499.3102    -9499.5718    -9499.6769  0.0050 -4.7723
siesta:   53    -9499.3101    -9499.5377    -9499.6427  0.0024 -4.7725
siesta:   54    -9499.3103    -9499.4427    -9499.5477  0.0056 -4.7721
siesta:   55    -9499.3104    -9499.4433    -9499.5483  0.0019 -4.7718
siesta:   56    -9499.3101    -9499.3821    -9499.4869  0.0027 -4.7718
siesta:   57    -9499.3102    -9499.3653    -9499.4703  0.0004 -4.7716
siesta:   58    -9499.3102    -9499.3441    -9499.4490  0.0003 -4.7717
siesta:   59    -9499.3102    -9499.3354    -9499.4403  0.0001 -4.7718
siesta:   60    -9499.3102    -9499.3265    -9499.4314  0.0002 -4.7718
siesta:   61    -9499.3102    -9499.3181    -9499.4231  0.0001 -4.7719
siesta:   62    -9499.3102    -9499.3152    -9499.4202  0.0001 -4.7719

siesta: E_KS(eV) =            -9499.3122

siesta: E_KS - E_eggbox =     -9499.3122

siesta: Atomic forces (eV/Ang):
----------------------------------------
   Tot   -0.116610   -0.104739    0.000000
----------------------------------------
   Max  559.265569
   Res  134.274952    sqrt( Sum f_i^2 / 3N )
----------------------------------------
   Max  559.265569    constrained

Stress-tensor-Voigt (kbar):     -657.03    -2416.78       -0.50      -10.62        0.00        0.00
(Free)E + p*V (eV/cell)    -8288.5010
Target enthalpy (eV/cell)    -9499.4172

siesta: Stress tensor (static) (eV/Ang**3):
        -0.410080   -0.006630    0.000000
        -0.006630   -1.508420    0.000000
         0.000000    0.000000   -0.000313

siesta: Pressure (static):       1024.77028160  kBar

siesta: Stress tensor (total) (eV/Ang**3):
        -0.410080   -0.006630    0.000000
        -0.006630   -1.508420    0.000000
         0.000000    0.000000   -0.000313

siesta: Pressure (total):       1024.77028160  kBar

siesta: Temp_ion =       0.000 K

* Maximum dynamic memory allocated =   174 MB
Computing bands...

siesta: Program's energy decomposition (eV):
siesta: Ebs     =     -4210.250563
siesta: Eions   =     16226.046981
siesta: Ena     =      4307.586856
siesta: Ekin    =      8240.065009
siesta: Enl     =      -861.422691
siesta: DEna    =      -715.907907
siesta: DUscf   =        94.709242
siesta: DUext   =         0.000000
siesta: Exc     =     -4338.295749
siesta: eta*DQ  =         0.000000
siesta: Emadel  =         0.000000
siesta: Emeta   =         0.000000
siesta: Emolmec =         0.000000
siesta: Ekinion =         0.000000
siesta: Eharris =     -9499.310186
siesta: Etot    =     -9499.312221
siesta: FreeEng =     -9499.417182

siesta: Final energy (eV):
siesta:  Band Struct. =   -4210.250563
siesta:       Kinetic =    8240.065009
siesta:       Hartree =   26550.823819
siesta:    Ext. field =       0.000000
siesta:   Exch.-corr. =   -4338.295749
siesta:  Ion-electron =  -61066.749477
siesta:       Ion-ion =   21114.844177
siesta:       Ekinion =       0.000000
siesta:         Total =   -9499.312221

siesta: Atomic forces (eV/Ang):
siesta:      1   -0.038939  407.311572    0.000000
siesta:      2    0.701215 -106.210330    0.000000
siesta:      3   -2.887898  399.582199    0.000000
siesta:      4   -0.184591 -106.809611    0.000000
siesta:      5   16.740788  394.542385    0.000000
siesta:      6   15.888339    0.026161    0.000000
siesta:      7    3.601596   -3.632065    0.000000
siesta:      8   -1.504566   -1.121377    0.000000
siesta:      9    5.315842   -2.256836    0.000000
siesta:     10    0.378604    1.782409    0.000000
siesta:     11    6.301499   -3.531221    0.000000
siesta:     12    2.314216    4.236502    0.000000
siesta:     13    3.004024  400.396620    0.000000
siesta:     14    4.368415 -106.100657    0.000000
siesta:     15    4.215999  384.067187    0.000000
siesta:     16    2.802690 -107.104653    0.000000
siesta:     17   19.845925  400.740779    0.000000
siesta:     18    2.665662  128.854294    0.000000
siesta:     19  -29.598363 -556.210352    0.000000
siesta:     20    0.823293  118.761429    0.000000
siesta:     21   16.642128 -400.313639    0.000000
siesta:     22   23.775734   -2.468599    0.000000
siesta:     23   31.886272 -402.515631    0.000000
siesta:     24    2.059266    0.778125    0.000000
siesta:     25   -2.324453    2.310535    0.000000
siesta:     26   -0.210300    3.250280    0.000000
siesta:     27   -0.636005   -0.418720    0.000000
siesta:     28  -24.170132    1.548920    0.000000
siesta:     29  -35.896566 -547.970377    0.000000
siesta:     30   21.786072   -4.033085    0.000000
siesta:     31   -3.093470    3.412544    0.000000
siesta:     32    0.341932    0.340799    0.000000
siesta:     33   -3.497110    1.225664    0.000000
siesta:     34   -1.673003   -0.089534    0.000000
siesta:     35  -28.412820  542.498209    0.000000
siesta:     36  -25.898617   -5.663152    0.000000
siesta:     37  -14.299104  551.640275    0.000000
siesta:     38  -22.007356   -7.432567    0.000000
siesta:     39    2.794843  559.265569    0.000000
siesta:     40   -0.471251    1.958538    0.000000
siesta:     41   -0.577293   -0.424082    0.000000
siesta:     42   -1.330970    0.097698    0.000000
siesta:     43    2.082146   -2.264508    0.000000
siesta:     44   -1.479041   -0.012547    0.000000
siesta:     45    0.493502    2.784700    0.000000
siesta:     46   -0.889869   -0.880525    0.000000
siesta:     47    1.083070   -0.404149    0.000000
siesta:     48    1.055755    0.086071    0.000000
siesta:     49    1.033397   -0.142317    0.000000
siesta:     50   -2.343160   -2.327162    0.000000
siesta:     51    0.516511    0.418155    0.000000
siesta:     52    0.301928   -0.476947    0.000000
siesta:     53    0.366585    6.425345    0.000000
siesta:     54   -0.669423   -6.085393    0.000000
siesta:     55   -1.468641    1.799714    0.000000
siesta:     56    0.371118    0.790453    0.000000
siesta:     57    1.202269    0.296437    0.000000
siesta:     58   -1.064855   -1.439135    0.000000
siesta:     59    0.131807   -3.350988    0.000000
siesta:     60    0.002666 -418.032605    0.000000
siesta:     61   -0.738792    0.552486    0.000000
siesta:     62    0.943831   -1.491177    0.000000
siesta:     63   21.363137    2.109705    0.000000
siesta:     64   29.116356 -413.256613    0.000000
siesta:     65  -21.246408    2.098282    0.000000
siesta:     66  -27.558723 -414.346387    0.000000
siesta:     67   -1.860340   -0.522250    0.000000
siesta:     68    1.706374    3.056498    0.000000
siesta:     69   -1.144965  121.541040    0.000000
siesta:     70    4.073833 -402.571952    0.000000
siesta:     71    7.451266  131.396562    0.000000
siesta:     72   -2.489489 -550.177737    0.000000
siesta: ----------------------------------------
siesta:    Tot   -0.116610   -0.104739    0.000000

siesta: Stress tensor (static) (eV/Ang**3):
siesta:    -0.410080   -0.006630    0.000000
siesta:    -0.006630   -1.508420    0.000000
siesta:     0.000000    0.000000   -0.000313

siesta: Cell volume =       1893.226884 Ang**3

siesta: Pressure (static):
siesta:                Solid            Molecule  Units
siesta:           0.00696611          0.10206274  Ry/Bohr**3
siesta:           0.63960439          9.37105332  eV/Ang**3
siesta:        1024.77028160      15014.24495178  kBar
(Free)E+ p_basis*V_orbitals  =       -9463.308356
(Free)Eharris+ p_basis*V_orbitals  =       -9463.303352

siesta: Electric dipole (a.u.)  =    0.000000    0.000000    0.000000
siesta: Electric dipole (Debye) =    0.000000    0.000000    0.000000

* Maximum dynamic memory allocated : Node    0 =   173 MB
* Maximum dynamic memory allocated : Node    1 =    70 MB
* Maximum dynamic memory allocated : Node    2 =    71 MB
* Maximum dynamic memory allocated : Node    3 =   159 MB
* Maximum dynamic memory allocated : Node    4 =   174 MB
* Maximum dynamic memory allocated : Node    5 =    64 MB
* Maximum dynamic memory allocated : Node    6 =    68 MB
* Maximum dynamic memory allocated : Node    7 =   167 MB
* Maximum dynamic memory allocated : Node    8 =   148 MB
* Maximum dynamic memory allocated : Node    9 =    61 MB
* Maximum dynamic memory allocated : Node   10 =    62 MB
* Maximum dynamic memory allocated : Node   11 =   139 MB

* Maximum memory occured during matrixMtoO                    

timer: CPU execution times:
timer:  Routine       Calls   Time/call    Tot.time        %
timer:  siesta            1  330626.582  330626.582   100.00
timer:  Setup             1       3.362       3.362     0.00
timer:  bands             3     419.922    1259.765     0.38
timer:  writewave         1       0.020       0.020     0.00
timer:  KSV_init          1       0.005       0.005     0.00
timer:  IterMD            1  329356.666  329356.666    99.62
timer:  hsparse           1       0.283       0.283     0.00
timer:  overlap           1       7.618       7.618     0.00
timer:  IterSCF          62    5309.303  329176.777    99.56
timer:  kinefsm           2       3.876       7.751     0.00
timer:  nlefsm            2      20.458      40.916     0.01
timer:  DHSCF            63      92.866    5850.559     1.77
timer:  DHSCF1            1       1.189       1.189     0.00
timer:  DHSCF2            1      34.654      34.654     0.01
timer:  REORD           506       0.002       1.121     0.00
timer:  POISON           64       0.622      39.784     0.01
timer:  DHSCF3           63      91.835    5785.628     1.75
timer:  rhoofd           63      18.245    1149.429     0.35
timer:  cellXC           63       3.121     196.639     0.06
timer:  vmat             63      42.068    2650.262     0.80
timer:  MolMec            2       0.000       0.000     0.00
timer:  diagon           62    5214.600  323305.206    97.79
timer:  c-eigval      14443      10.379  149900.731    45.34
timer:  c-buildHS     14443       0.034     492.281     0.15
timer:  cdiag         28765      10.647  306248.903    92.63
timer:  cdiag1        28765       0.477   13734.747     4.15
timer:  cdiag2        28765       3.374   97050.250    29.35
timer:  cdiag3        28765       6.335  182235.800    55.12
timer:  cdiag4        28765       0.163    4689.295     1.42
timer:  c-eigvec      14322      10.982  157281.340    47.57
timer:  c-buildD      14322       1.208   17303.575     5.23
timer:  DHSCF4            1      28.404      28.404     0.01
timer:  dfscf             1      26.309      26.309     0.01
timer:  overfsm           1       0.326       0.326     0.00
timer:  optical           1       6.156       6.156     0.00
  

elaps: ELAPSED times:
elaps:  Routine       Calls   Time/call    Tot.time        %
elaps:  siesta            1   28817.112   28817.112   100.00
elaps:  Setup             1       0.291       0.291     0.00
elaps:  bands             3      36.616     109.847     0.38
elaps:  writewave         1       0.002       0.002     0.00
elaps:  KSV_init          1       0.000       0.000     0.00
elaps:  IterMD            1   28706.427   28706.427    99.62
elaps:  hsparse           1       0.028       0.028     0.00
elaps:  overlap           1       0.717       0.717     0.00
elaps:  IterSCF          62     462.754   28690.765    99.56
elaps:  kinefsm           2       0.366       0.731     0.00
elaps:  nlefsm            2       1.822       3.644     0.01
elaps:  DHSCF            63       8.143     512.994     1.78
elaps:  DHSCF1            1       0.102       0.102     0.00
elaps:  DHSCF2            1       3.020       3.020     0.01
elaps:  REORD           506       0.000       0.141     0.00
elaps:  POISON           64       0.056       3.583     0.01
elaps:  DHSCF3           63       8.005     504.315     1.75
elaps:  rhoofd           63       3.323     209.352     0.73
elaps:  cellXC           63       0.272      17.114     0.06
elaps:  vmat             63       3.668     231.088     0.80
elaps:  MolMec            2       0.000       0.000     0.00
elaps:  diagon           62     454.512   28179.728    97.79
elaps:  c-eigval      14443       0.905   13065.295    45.34
elaps:  c-buildHS     14443       0.004      53.652     0.19
elaps:  cdiag         28765       0.921   26502.049    91.97
elaps:  cdiag1        28765       0.041    1182.656     4.10
elaps:  cdiag2        28765       0.295    8471.410    29.40
elaps:  cdiag3        28765       0.553   15914.645    55.23
elaps:  cdiag4        28765       0.013     387.654     1.35
elaps:  c-eigvec      14322       0.946   13548.773    47.02
elaps:  c-buildD      14322       0.116    1665.356     5.78
elaps:  DHSCF4            1       5.467       5.467     0.02
elaps:  dfscf             1       5.196       5.196     0.02
elaps:  overfsm           1       0.034       0.034     0.00
elaps:  optical           1       0.000       0.000     0.00
  
>> End of run:   1-MAY-2016  19:52:00
