Siesta Version:                                        siesta-3.2-pl-3
Architecture  : x86_64-unknown-linux-gnu--unknown
Compiler flags: mpiifort -g -O2 -fPIC -xSSE4.1 -fp-model source -shared-intel 
PARALLEL version

* Running on    8 nodes in parallel
>> Start of run:  21-APR-2016  18:29:02

                           ***********************       
                           *  WELCOME TO SIESTA  *       
                           ***********************       

reinit: Reading from standard input
************************** Dump of input data file ****************************
#(1) General system descriptors
SystemName            GRP_doping    # Descriptive name of the system
SystemLabel           GRP_doping    # Short name for naming files
%include STRUCT.fdf
%include KPT.fdf
%include BASIS.fdf
#%include TS.fdf # for transiesta calculation
#(4) DFT, Grid, SCF
XC.functional         GGA           # LDA or GGA (default = LDA)
XC.authors            PBE           # CA (Ceperley-Aldr) = PZ
                                    #    (Perdew-Zunger) - LDA - Default
                                    # PW92 (Perdew-Wang-92) - LDA
                                    # PBE (Perdew-Burke-Ernzerhof) - GGA
MeshCutoff            200.000000    Ry      # Default: 50.0 Ry ~ 0.444 Bohr
                                    #         100.0 Ry ~ 0.314 Bohr
MaxSCFIterations      500           # Default: 50
DM.MixingWeight       0.05          # Default: 0.25
DM.NumberPulay        10            # Default: 0
DM.PulayOnFile        F             # SystemLabel.P1, SystemLabel.P2
DM.Tolerance          1.d-4         # Default: 1.d-4
DM.UseSaveDM          .true.        # because of the bug
SCFMustConverge       .true.
NeglNonOverlapInt     F             # Default: F
#(5) Eigenvalue problem: order-N or diagonalization
SolutionMethod        Diagon        # or Transiesta
ElectronicTemperature 300.0 K       # Default: 300.0 K
#(6) Molecular dynamics and relaxations
#MD.TypeOfRun          CG            # Type of dynamics:
#MD.VariableCell       F
#MD.NumCGsteps         0           # 0 for single-point / 100 for gopt
#MD.MaxCGDispl         0.2 Bohr      # Default: 0.2 Bohr
#MD.MaxForceTol        0.02 eV/Ang   # Default: 0.04 eV/Ang
#MD.MaxStressTol       1.0 GPa       # Default: 1.0 GPa
# Geometry Constraints
#%block GeometryConstraints
#	position from 1 to 44
#%endblock GeometryConstraints
BandLinesScale   pi/a
%block BandLines
 1   0.00000000  0.00000000  0.00000000
50   0.00000000  0.07809418  0.00000000
50   0.04509075  0.07809242  0.00000000
20   0.00000000  0.00000000  0.00000000
%endblock BandLines
************************** End of input data file *****************************

reinit: -----------------------------------------------------------------------
reinit: System Name: GRP_doping
reinit: -----------------------------------------------------------------------
reinit: System Label: GRP_doping                                                  
reinit: -----------------------------------------------------------------------

initatom: Reading input for the pseudopotentials and atomic orbitals ----------
 Species number:            1  Label: N Atomic number:           7
 Species number:            2  Label: C Atomic number:           6
Ground state valence configuration:   2s02  2p03
Reading pseudopotential information in formatted form from N.psf

Valence configuration for pseudopotential generation:
2s( 2.00) rc: 1.48
2p( 3.00) rc: 1.48
3d( 0.00) rc: 1.48
4f( 0.00) rc: 1.48
Ground state valence configuration:   2s02  2p02
Reading pseudopotential information in formatted form from C.psf

Valence configuration for pseudopotential generation:
2s( 2.00) rc: 1.54
2p( 2.00) rc: 1.54
3d( 0.00) rc: 1.54
4f( 0.00) rc: 1.54
For N, standard SIESTA heuristics set lmxkb to 3
 (one more than the basis l, including polarization orbitals).
Use PS.lmax or PS.KBprojectors blocks to override.
For C, standard SIESTA heuristics set lmxkb to 3
 (one more than the basis l, including polarization orbitals).
Use PS.lmax or PS.KBprojectors blocks to override.

<basis_specs>
===============================================================================
N                    Z=   7    Mass=  14.010        Charge= 0.17977+309
Lmxo=1 Lmxkb= 3    BasisType=split      Semic=F
L=0  Nsemic=0  Cnfigmx=2
          n=1  nzeta=2  polorb=0
            splnorm:   0.15000    
               vcte:    0.0000    
               rinn:    0.0000    
                rcs:    0.0000      0.0000    
            lambdas:    1.0000      1.0000    
L=1  Nsemic=0  Cnfigmx=2
          n=1  nzeta=2  polorb=1
            splnorm:   0.15000    
               vcte:    0.0000    
               rinn:    0.0000    
                rcs:    0.0000      0.0000    
            lambdas:    1.0000      1.0000    
-------------------------------------------------------------------------------
L=0  Nkbl=1  erefs: 0.17977+309
L=1  Nkbl=1  erefs: 0.17977+309
L=2  Nkbl=1  erefs: 0.17977+309
L=3  Nkbl=1  erefs: 0.17977+309
===============================================================================
</basis_specs>

atom: Called for N                     (Z =   7)

read_vps: Pseudopotential generation method:
read_vps: ATM3      Troullier-Martins                       
Total valence charge:    5.00000

read_vps: Pseudopotential includes a core correction:
read_vps: Pseudo-core for xc-correction

xc_check: Exchange-correlation functional:
xc_check: GGA Perdew, Burke & Ernzerhof 1996
V l=0 = -2*Zval/r beyond r=  1.4606
V l=1 = -2*Zval/r beyond r=  1.4606
V l=2 = -2*Zval/r beyond r=  1.4606
V l=3 = -2*Zval/r beyond r=  1.4606
All V_l potentials equal beyond r=  1.4606
This should be close to max(r_c) in ps generation
All pots = -2*Zval/r beyond r=  1.4606

VLOCAL1: 99.0% of the norm of Vloc inside     20.347 Ry
VLOCAL1: 99.9% of the norm of Vloc inside     46.372 Ry
atom: Maximum radius for 4*pi*r*r*local-pseudopot. charge    1.76189
atom: Maximum radius for r*vlocal+2*Zval:    1.53550
GHOST: No ghost state for L =  0
GHOST: No ghost state for L =  1
GHOST: No ghost state for L =  2
GHOST: No ghost state for L =  3

KBgen: Kleinman-Bylander projectors: 
   l= 0   rc=  1.634559   el= -1.363963   Ekb=  5.296955   kbcos=  0.335621
   l= 1   rc=  1.614250   el= -0.521451   Ekb= -5.259161   kbcos= -0.433408
   l= 2   rc=  1.718383   el=  0.001991   Ekb= -1.271464   kbcos= -0.007566
   l= 3   rc=  1.761893   el=  0.003093   Ekb= -0.494769   kbcos= -0.001015

KBgen: Total number of  Kleinman-Bylander projectors:   16
atom: -------------------------------------------------------------------------

atom: SANKEY-TYPE ORBITALS:
atom: Selected multiple-zeta basis: split     

SPLIT: Orbitals with angular momentum L= 0

SPLIT: Basis orbitals for state 2s

SPLIT: PAO cut-off radius determined from an
SPLIT: energy shift=  0.007350 Ry

   izeta = 1
                 lambda =    1.000000
                     rc =    4.071465
                 energy =   -1.356470
                kinetic =    1.176977
    potential(screened) =   -2.533447
       potential(ionic) =   -8.057990

   izeta = 2
                 rmatch =    2.905100
              splitnorm =    0.150000
                 energy =   -1.158343
                kinetic =    1.813009
    potential(screened) =   -2.971352
       potential(ionic) =   -8.901931

SPLIT: Orbitals with angular momentum L= 1

SPLIT: Basis orbitals for state 2p

SPLIT: PAO cut-off radius determined from an
SPLIT: energy shift=  0.007350 Ry

   izeta = 1
                 lambda =    1.000000
                     rc =    4.972977
                 energy =   -0.513884
                kinetic =    3.441732
    potential(screened) =   -3.955616
       potential(ionic) =   -9.287901

   izeta = 2
                 rmatch =    3.054066
              splitnorm =    0.150000
                 energy =   -0.318226
                kinetic =    5.125348
    potential(screened) =   -5.443573
       potential(ionic) =  -11.380999

POLgen: Perturbative polarization orbital with L=  2

POLgen: Polarization orbital for state 2p

   izeta = 1
                     rc =    4.972977
                 energy =    1.607437
                kinetic =    3.268125
    potential(screened) =   -1.660688
       potential(ionic) =   -5.973652
atom: Total number of Sankey-type orbitals: 13

atm_pop: Valence configuration (for local Pseudopot. screening):
 2s( 2.00)                                                            
 2p( 3.00)                                                            
Vna: chval, zval:    5.00000   5.00000

Vna:  Cut-off radius for the neutral-atom potential:   4.972977
comcore: Pseudo-core radius Rcore=  1.554824

atom: _________________________________________________________________________

<basis_specs>
===============================================================================
C                    Z=   6    Mass=  12.010        Charge= 0.17977+309
Lmxo=1 Lmxkb= 3    BasisType=split      Semic=F
L=0  Nsemic=0  Cnfigmx=2
          n=1  nzeta=2  polorb=0
            splnorm:   0.15000    
               vcte:    0.0000    
               rinn:    0.0000    
                rcs:    0.0000      0.0000    
            lambdas:    1.0000      1.0000    
L=1  Nsemic=0  Cnfigmx=2
          n=1  nzeta=2  polorb=1
            splnorm:   0.15000    
               vcte:    0.0000    
               rinn:    0.0000    
                rcs:    0.0000      0.0000    
            lambdas:    1.0000      1.0000    
-------------------------------------------------------------------------------
L=0  Nkbl=1  erefs: 0.17977+309
L=1  Nkbl=1  erefs: 0.17977+309
L=2  Nkbl=1  erefs: 0.17977+309
L=3  Nkbl=1  erefs: 0.17977+309
===============================================================================
</basis_specs>

atom: Called for C                     (Z =   6)

read_vps: Pseudopotential generation method:
read_vps: ATM3      Troullier-Martins                       
Total valence charge:    4.00000

read_vps: Pseudopotential includes a core correction:
read_vps: Pseudo-core for xc-correction

xc_check: Exchange-correlation functional:
xc_check: GGA Perdew, Burke & Ernzerhof 1996
V l=0 = -2*Zval/r beyond r=  1.5227
V l=1 = -2*Zval/r beyond r=  1.5227
V l=2 = -2*Zval/r beyond r=  1.5227
V l=3 = -2*Zval/r beyond r=  1.5038
All V_l potentials equal beyond r=  1.5227
This should be close to max(r_c) in ps generation
All pots = -2*Zval/r beyond r=  1.5227

VLOCAL1: 99.0% of the norm of Vloc inside     18.722 Ry
VLOCAL1: 99.9% of the norm of Vloc inside     42.668 Ry
atom: Maximum radius for 4*pi*r*r*local-pseudopot. charge    1.83678
atom: Maximum radius for r*vlocal+2*Zval:    1.58088
GHOST: No ghost state for L =  0
GHOST: No ghost state for L =  1
GHOST: No ghost state for L =  2
GHOST: No ghost state for L =  3

KBgen: Kleinman-Bylander projectors: 
   l= 0   rc=  1.704034   el= -1.009801   Ekb=  5.335044   kbcos=  0.316824
   l= 1   rc=  1.704034   el= -0.388707   Ekb= -3.785862   kbcos= -0.366464
   l= 2   rc=  1.791422   el=  0.001971   Ekb= -0.970471   kbcos= -0.009212
   l= 3   rc=  1.859892   el=  0.003065   Ekb= -0.399525   kbcos= -0.001223

KBgen: Total number of  Kleinman-Bylander projectors:   16
atom: -------------------------------------------------------------------------

atom: SANKEY-TYPE ORBITALS:
atom: Selected multiple-zeta basis: split     

SPLIT: Orbitals with angular momentum L= 0

SPLIT: Basis orbitals for state 2s

SPLIT: PAO cut-off radius determined from an
SPLIT: energy shift=  0.007350 Ry

   izeta = 1
                 lambda =    1.000000
                     rc =    4.632753
                 energy =   -1.002270
                kinetic =    0.855760
    potential(screened) =   -1.858031
       potential(ionic) =   -5.417575

   izeta = 2
                 rmatch =    3.431921
              splitnorm =    0.150000
                 energy =   -0.867111
                kinetic =    1.300804
    potential(screened) =   -2.167915
       potential(ionic) =   -5.962684

SPLIT: Orbitals with angular momentum L= 1

SPLIT: Basis orbitals for state 2p

SPLIT: PAO cut-off radius determined from an
SPLIT: energy shift=  0.007350 Ry

   izeta = 1
                 lambda =    1.000000
                     rc =    5.658549
                 energy =   -0.381140
                kinetic =    2.399701
    potential(screened) =   -2.780841
       potential(ionic) =   -6.206085

   izeta = 2
                 rmatch =    3.653288
              splitnorm =    0.150000
                 energy =   -0.249149
                kinetic =    3.542762
    potential(screened) =   -3.791911
       potential(ionic) =   -7.581078

POLgen: Perturbative polarization orbital with L=  2

POLgen: Polarization orbital for state 2p

   izeta = 1
                     rc =    5.658549
                 energy =    1.109913
                kinetic =    2.304789
    potential(screened) =   -1.194876
       potential(ionic) =   -4.013592
atom: Total number of Sankey-type orbitals: 13

atm_pop: Valence configuration (for local Pseudopot. screening):
 2s( 2.00)                                                            
 2p( 2.00)                                                            
Vna: chval, zval:    4.00000   4.00000

Vna:  Cut-off radius for the neutral-atom potential:   5.658549
comcore: Pseudo-core radius Rcore=  1.791422

atom: _________________________________________________________________________

prinput: Basis input ----------------------------------------------------------

PAO.BasisType split     

%block ChemicalSpeciesLabel
    1    7 N                       # Species index, atomic number, species label
    2    6 C                       # Species index, atomic number, species label
%endblock ChemicalSpeciesLabel

%block PAO.Basis                 # Define Basis set
N                     2                    # Species label, number of l-shells
 n=2   0   2                         # n, l, Nzeta 
   4.071      2.905   
   1.000      1.000   
 n=2   1   2 P   1                   # n, l, Nzeta, Polarization, NzetaPol
   4.973      3.054   
   1.000      1.000   
C                     2                    # Species label, number of l-shells
 n=2   0   2                         # n, l, Nzeta 
   4.633      3.432   
   1.000      1.000   
 n=2   1   2 P   1                   # n, l, Nzeta, Polarization, NzetaPol
   5.659      3.653   
   1.000      1.000   
%endblock PAO.Basis

prinput: ----------------------------------------------------------------------

coor:   Atomic-coordinates input format  =     Fractional

siesta: Atomic coordinates (Bohr) and species
siesta:     -2.35420  38.89134   0.00000  1        1
siesta:     -2.35420  41.57980   0.00000  1        2
siesta:      2.30256  38.89134   0.00000  1        3
siesta:      2.30256  41.57980   0.00000  1        4
siesta:     -4.68258  34.85847   0.00000  1        5
siesta:     -4.68258  37.54693   0.00000  1        6
siesta:      4.63094  18.72698   0.00000  1        7
siesta:     -9.33934  18.72698   0.00000  1        8
siesta:     -9.33934  21.41544   0.00000  1        9
siesta:     -7.01096  22.75985   0.00000  1       10
siesta:     -7.01096  25.44831   0.00000  1       11
siesta:    -11.66772  22.75985   0.00000  1       12
siesta:    -11.66772  25.44831   0.00000  1       13
siesta:     -9.33934  26.79272   0.00000  1       14
siesta:     -9.33934  29.48119   0.00000  1       15
siesta:     -4.68258  26.79272   0.00000  1       16
siesta:     -4.68258  29.48119   0.00000  1       17
siesta:     -2.35420  30.82560   0.00000  1       18
siesta:     -2.35420  33.51406   0.00000  1       19
siesta:     -7.01096  30.82560   0.00000  1       20
siesta:     -7.01096  33.51406   0.00000  1       21
siesta:     -0.02582  34.85847   0.00000  1       22
siesta:     -0.02582  37.54693   0.00000  1       23
siesta:     -0.02582  42.92421   0.00000  1       24
siesta:     -0.02582  45.61267   0.00000  1       25
siesta:     -0.02582   2.59549   0.00000  2       26
siesta:     -0.02582   5.28395   0.00000  2       27
siesta:      4.63094  34.85847   0.00000  2       28
siesta:      4.63094  37.54693   0.00000  2       29
siesta:      6.95932  30.82560   0.00000  2       30
siesta:      6.95932  33.51406   0.00000  2       31
siesta:      9.28770  26.79272   0.00000  2       32
siesta:      9.28770  29.48119   0.00000  2       33
siesta:      2.30256   6.62836   0.00000  2       34
siesta:      2.30256   9.31683   0.00000  2       35
siesta:      4.63094  10.66124   0.00000  2       36
siesta:      4.63094  13.34970   0.00000  2       37
siesta:      6.95932  14.69411   0.00000  2       38
siesta:      6.95932  17.38257   0.00000  2       39
siesta:      9.28770  18.72698   0.00000  2       40
siesta:      9.28770  21.41544   0.00000  2       41
siesta:     11.61608  22.75985   0.00000  2       42
siesta:     11.61608  25.44831   0.00000  2       43
siesta:     -2.35420   6.62836   0.00000  2       44
siesta:     -2.35420   9.31683   0.00000  2       45
siesta:     -0.02582  10.66124   0.00000  2       46
siesta:     -0.02582  13.34970   0.00000  2       47
siesta:      2.30256  14.69411   0.00000  2       48
siesta:      2.30256  17.38257   0.00000  2       49
siesta:      4.63094  21.41544   0.00000  2       50
siesta:      6.95932  22.75985   0.00000  2       51
siesta:      6.95932  25.44831   0.00000  2       52
siesta:     -4.68258  10.66124   0.00000  2       53
siesta:     -4.68258  13.34970   0.00000  2       54
siesta:     -2.35420  14.69411   0.00000  2       55
siesta:     -2.35420  17.38257   0.00000  2       56
siesta:     -0.02582  18.72698   0.00000  2       57
siesta:     -0.02582  21.41544   0.00000  2       58
siesta:      2.30256  22.75985   0.00000  2       59
siesta:      2.30256  25.44831   0.00000  2       60
siesta:     -7.01096  14.69411   0.00000  2       61
siesta:     -7.01096  17.38257   0.00000  2       62
siesta:     -4.68258  18.72698   0.00000  2       63
siesta:     -4.68258  21.41544   0.00000  2       64
siesta:     -2.35420  22.75985   0.00000  2       65
siesta:     -2.35420  25.44831   0.00000  2       66
siesta:      4.63094  26.79272   0.00000  2       67
siesta:      4.63094  29.48119   0.00000  2       68
siesta:     -0.02582  26.79272   0.00000  2       69
siesta:     -0.02582  29.48119   0.00000  2       70
siesta:      2.30256  30.82560   0.00000  2       71
siesta:      2.30256  33.51406   0.00000  2       72

siesta: System type = slab      

initatomlists: Number of atoms, orbitals, and projectors:     72   936  1152

siesta: ******************** Simulation parameters ****************************
siesta:
siesta: The following are some of the parameters of the simulation.
siesta: A complete list of the parameters used, including default values,
siesta: can be found in file out.fdf
siesta:
redata: Non-Collinear-spin run           =     F
redata: SpinPolarized (Up/Down) run      =     F
redata: Number of spin components        =     1
redata: Long output                      =     F
redata: Number of Atomic Species         =        2
redata: Charge density info will appear in .RHO file
redata: Write Mulliken Pop.              =     NO
redata: Mesh Cutoff                      =   200.0000  Ry
redata: Net charge of the system         =     0.0000 |e|
redata: Max. number of SCF Iter          =      500
redata: SCF convergence failure will abort job
redata: Performing Pulay mixing using    =    10 iterations
redata: Mix DM in first SCF step ?       =     F
redata: Write Pulay info on disk?        =     F
redata: Discard 1st Pulay DM after  kick =     F
redata: New DM Mixing Weight             =     0.0500
redata: New DM Occupancy tolerance       = 0.000000000001
redata: No kicks to SCF
redata: DM Mixing Weight for Kicks       =     0.5000
redata: DM Tolerance for SCF             =     0.000100
redata: Require Energy convergence for SCF =     F
redata: DM Energy tolerance for SCF      =     0.000100 eV
redata: Require Harris convergence for SCF =     F
redata: DM Harris energy tolerance for SCF =     0.000100 eV
redata: Using Saved Data (generic)   =     F
redata: Use continuation files for DM    =     T
redata: Neglect nonoverlap interactions  =     F
redata: Method of Calculation            =     Diagonalization
redata: Divide and Conquer               =     T
redata: Electronic Temperature           =     0.0019  Ry
redata: Fix the spin of the system       =     F
redata: Dynamics option                  =     Verlet MD run
redata: Initial MD time step             =        1
redata:   Final MD time step             =        1
redata: Length of MD time step           =     1.0000  fs
redata: Initial Temperature of MD run    =     0.0000  K
redata: Perform a MD quench              =     F
redata: ***********************************************************************
Total number of electrons:   313.000000
Total ionic charge:   313.000000

* ProcessorY, Blocksize:    2  24

k-point displ. along   1 input, could be:     0.50    0.00
k-point displ. along   2 input, could be:     0.50    0.00
 Kpoints in:          231 . Kpoints trimmed:          231

siesta: k-grid: Number of k-points =   231
siesta: k-grid: Cutoff (effective) =     5.000 Ang
siesta: k-grid: Supercell and displacements
siesta: k-grid:   21   0   0      0.500
siesta: k-grid:    0  21   0      0.500
siesta: k-grid:    0   0   1      0.000
Naive supercell factors:     2    2    2

superc: Internal auxiliary supercell:     2 x     2 x     2  =       8
superc: Number of atoms, orbitals, and projectors:    576   7488   9216

* Maximum dynamic memory allocated =     4 MB

siesta:                 ==============================
                            Begin MD step =      1
                        ==============================

superc: Internal auxiliary supercell:     2 x     2 x     2  =       8
superc: Number of atoms, orbitals, and projectors:    576   7488   9216

outcell: Unit cell vectors (Ang):
       12.804619    7.392750    0.000000
        0.000000   14.785500    0.000000
        0.000000    0.000000   10.000000

outcell: Cell vector modules (Ang)   :   14.785500   14.785500   10.000000
outcell: Cell angles (23,13,12) (deg):     90.0000     90.0000     60.0000
outcell: Cell volume (Ang**3)        :   1893.2269
New_DM. Step:     1
Initializing Density Matrix...

InitMesh: MESH =   120 x   120 x    90 =     1296000
InitMesh: Mesh cutoff (required, used) =   200.000   223.865 Ry

* Maximum dynamic memory allocated =   177 MB

stepf: Fermi-Dirac step function

siesta: Program's energy decomposition (eV):
siesta: Ebs     =     -6404.282906
siesta: Eions   =     22421.682175
siesta: Ena     =      4986.385278
siesta: Ekin    =      8476.244847
siesta: Enl     =      -101.375267
siesta: DEna    =        -0.000015
siesta: DUscf   =         0.000000
siesta: DUext   =         0.000000
siesta: Exc     =     -4805.017516
siesta: eta*DQ  =         0.000000
siesta: Emadel  =         0.000000
siesta: Emeta   =         0.000000
siesta: Emolmec =         0.000000
siesta: Ekinion =         0.000000
siesta: Eharris =    -13467.392028
siesta: Etot    =    -13865.444849
siesta: FreeEng =    -13865.444849

siesta: iscf   Eharris(eV)      E_KS(eV)   FreeEng(eV)   dDmax  Ef(eV)
siesta:    1   -13467.3920   -13865.4448   -13865.4448  5.9380 -6.1702
timer: Routine,Calls,Time,% = IterSCF        1    4201.843  99.73
elaps: Routine,Calls,Wall,% = IterSCF        1     525.852  99.73
siesta:    2   -16800.3051   -12940.3040   -12940.3582 14.3672 -2.4846
siesta:    3   -13363.1452   -13632.5300   -13632.5808  2.0811 -4.6226
siesta:    4   -13335.1939   -13490.2397   -13490.2932  0.9839 -3.9101
siesta:    5   -13315.3912   -13437.0062   -13437.0488  0.9150 -3.8125
siesta:    6   -13311.2823   -13417.5643   -13417.6126  0.9072 -3.9243
siesta:    7   -13307.6036   -13384.2483   -13384.2875  0.6727 -3.8777
siesta:    8   -13306.3549   -13370.2574   -13370.3132  0.6056 -3.9379
siesta:    9   -13306.0417   -13349.4140   -13349.4790  0.4616 -3.7564
siesta:   10   -13306.9842   -13321.8534   -13321.8924  0.9580 -3.5944
siesta:   11   -13306.4538   -13318.8520   -13318.8991  0.3324 -3.7645
siesta:   12   -13305.9386   -13304.8865   -13304.9307  0.6833 -3.8372
siesta:   13   -13305.4298   -13301.0344   -13301.0798  0.3243 -3.8722
siesta:   14   -13305.1459   -13299.4092   -13299.4836  0.3382 -3.8812
siesta:   15   -13305.0460   -13299.4505   -13299.5226  0.2119 -3.8343
siesta:   16   -13304.8281   -13298.1470   -13298.2144  0.0980 -3.8834
siesta:   17   -13304.8086   -13299.5195   -13299.6135  0.1941 -3.8478
siesta:   18   -13304.7346   -13299.1772   -13299.2501  0.1210 -3.8747
siesta:   19   -13304.7426   -13299.1920   -13299.2788  0.1108 -3.8774
siesta:   20   -13304.7196   -13298.8612   -13298.9395  0.0971 -3.8819
siesta:   21   -13304.7152   -13299.7519   -13299.8385  0.0860 -3.8833
siesta:   22   -13304.7061   -13300.7086   -13300.7959  0.0553 -3.8910
siesta:   23   -13304.7014   -13301.7978   -13301.8877  0.0453 -3.8929
siesta:   24   -13304.6995   -13302.4138   -13302.5061  0.0414 -3.8942
siesta:   25   -13304.6989   -13303.5122   -13303.6038  0.0549 -3.8975
siesta:   26   -13304.6973   -13303.1632   -13303.2549  0.0157 -3.8962
siesta:   27   -13304.6964   -13303.3267   -13303.4182  0.0219 -3.8967
siesta:   28   -13304.6963   -13303.8265   -13303.9180  0.0206 -3.8979
siesta:   29   -13304.6961   -13304.1938   -13304.2848  0.0150 -3.8986
siesta:   30   -13304.6963   -13304.3770   -13304.4683  0.0097 -3.8979
siesta:   31   -13304.6960   -13304.5008   -13304.5918  0.0027 -3.8976
siesta:   32   -13304.6960   -13304.5660   -13304.6571  0.0022 -3.8971
siesta:   33   -13304.6959   -13304.6163   -13304.7074  0.0025 -3.8969
siesta:   34   -13304.6959   -13304.6453   -13304.7364  0.0017 -3.8968
siesta:   35   -13304.6959   -13304.6793   -13304.7705  0.0009 -3.8968
siesta:   36   -13304.6959   -13304.6703   -13304.7614  0.0006 -3.8968
siesta:   37   -13304.6959   -13304.6858   -13304.7769  0.0004 -3.8968
siesta:   38   -13304.6959   -13304.6909   -13304.7820  0.0004 -3.8968
siesta:   39   -13304.6959   -13304.6921   -13304.7832  0.0002 -3.8968
siesta:   40   -13304.6959   -13304.6903   -13304.7814  0.0002 -3.8968
siesta:   41   -13304.6959   -13304.6911   -13304.7822  0.0002 -3.8968
siesta:   42   -13304.6959   -13304.6935   -13304.7847  0.0001 -3.8968

siesta: E_KS(eV) =           -13304.6934

siesta: E_KS - E_eggbox =    -13304.6934

siesta: Atomic forces (eV/Ang):
----------------------------------------
   Tot   -0.329858   -0.071670    0.000000
----------------------------------------
   Max  686.674315
   Res  184.110213    sqrt( Sum f_i^2 / 3N )
----------------------------------------
   Max  686.674315    constrained

Stress-tensor-Voigt (kbar):     -614.08    -3357.47        0.00       13.45        0.00        0.00
(Free)E + p*V (eV/cell)   -11740.4622
Target enthalpy (eV/cell)   -13304.7845

siesta: Stress tensor (static) (eV/Ang**3):
        -0.383273    0.008395    0.000000
         0.008395   -2.095545    0.000000
         0.000000    0.000000   -0.000002

siesta: Pressure (static):       1323.84965724  kBar

siesta: Stress tensor (total) (eV/Ang**3):
        -0.383273    0.008395    0.000000
         0.008395   -2.095545    0.000000
         0.000000    0.000000   -0.000002

siesta: Pressure (total):       1323.84965724  kBar

siesta: Temp_ion =       0.000 K

* Maximum dynamic memory allocated =   194 MB
Computing bands...

siesta: Program's energy decomposition (eV):
siesta: Ebs     =     -5131.089835
siesta: Eions   =     22421.682175
siesta: Ena     =      4986.385278
siesta: Ekin    =     11683.424705
siesta: Enl     =     -1846.086356
siesta: DEna    =      -834.167039
siesta: DUscf   =       116.781647
siesta: DUext   =         0.000000
siesta: Exc     =     -4989.349474
siesta: eta*DQ  =         0.000000
siesta: Emadel  =         0.000000
siesta: Emeta   =         0.000000
siesta: Emolmec =         0.000000
siesta: Ekinion =         0.000000
siesta: Eharris =    -13304.695905
siesta: Etot    =    -13304.693415
siesta: FreeEng =    -13304.784535

siesta: Final energy (eV):
siesta:  Band Struct. =   -5131.089835
siesta:       Kinetic =   11683.424705
siesta:       Hartree =   37609.761119
siesta:    Ext. field =       0.000000
siesta:   Exch.-corr. =   -4989.349474
siesta:  Ion-electron =  -86352.144659
siesta:       Ion-ion =   28743.614894
siesta:       Ekinion =       0.000000
siesta:         Total =  -13304.693415

siesta: Atomic forces (eV/Ang):
siesta:      1    0.608509  108.420086    0.000000
siesta:      2  -26.170367 -658.468859    0.000000
siesta:      3    4.145063  104.594483    0.000000
siesta:      4   24.170533 -657.676014    0.000000
siesta:      5  -30.211522    7.928029    0.000000
siesta:      6  -25.925829 -657.273929    0.000000
siesta:      7   -1.248166    4.809607    0.000000
siesta:      8    0.347998    1.817756    0.000000
siesta:      9   -0.166241   -1.156537    0.000000
siesta:     10    0.631548   -0.460012    0.000000
siesta:     11   -0.846045    0.478826    0.000000
siesta:     12    1.573269    1.723731    0.000000
siesta:     13    1.480235   -1.658494    0.000000
siesta:     14    1.107885   -0.080470    0.000000
siesta:     15    0.081947    0.349218    0.000000
siesta:     16    0.400367   -1.058612    0.000000
siesta:     17   -3.611864   -3.787472    0.000000
siesta:     18  -26.838058    7.239958    0.000000
siesta:     19    1.862471 -677.897661    0.000000
siesta:     20   -0.808208   -0.948074    0.000000
siesta:     21   -1.249872   -3.454006    0.000000
siesta:     22    3.153359  106.573003    0.000000
siesta:     23   -1.127600 -665.053199    0.000000
siesta:     24   -0.996022  109.427175    0.000000
siesta:     25   -1.051646 -645.978526    0.000000
siesta:     26  -13.483132  549.113883    0.000000
siesta:     27   -1.831301 -121.678976    0.000000
siesta:     28   27.525839    3.977035    0.000000
siesta:     29   32.241554 -554.674311    0.000000
siesta:     30    1.693974    0.056221    0.000000
siesta:     31   -3.051989    1.615382    0.000000
siesta:     32    1.962583    2.561816    0.000000
siesta:     33   -1.524183   -0.087952    0.000000
siesta:     34   -3.977307  547.541967    0.000000
siesta:     35   -1.563901 -121.769065    0.000000
siesta:     36   19.552282  551.906525    0.000000
siesta:     37   26.207039   -4.000217    0.000000
siesta:     38   -3.236828   -1.025687    0.000000
siesta:     39    1.416670    0.316181    0.000000
siesta:     40   -1.614563   -0.482401    0.000000
siesta:     41    1.773964   -2.344493    0.000000
siesta:     42   -0.075730    7.400546    0.000000
siesta:     43   -0.236069   -7.611468    0.000000
siesta:     44  -24.283231  655.331149    0.000000
siesta:     45    2.057800 -116.683888    0.000000
siesta:     46   -5.124569  674.574114    0.000000
siesta:     47   -0.070578 -114.968949    0.000000
siesta:     48    0.136325  684.778760    0.000000
siesta:     49   25.628631   -4.894545    0.000000
siesta:     50    0.698074   -1.219053    0.000000
siesta:     51   -0.274907    0.398320    0.000000
siesta:     52   -0.407449   -0.590734    0.000000
siesta:     53  -21.566483  658.947223    0.000000
siesta:     54  -25.941465   -4.251949    0.000000
siesta:     55    2.794519  686.674315    0.000000
siesta:     56  -24.163110   -5.006894    0.000000
siesta:     57   -0.213911  686.521298    0.000000
siesta:     58    0.352880    0.598756    0.000000
siesta:     59    0.011492   -0.540131    0.000000
siesta:     60    0.195950   -0.442477    0.000000
siesta:     61    1.629581   -0.093410    0.000000
siesta:     62   -1.357069    0.875727    0.000000
siesta:     63    0.753535    4.116252    0.000000
siesta:     64   -0.607451    0.210504    0.000000
siesta:     65   -1.596167   -0.435766    0.000000
siesta:     66   -0.326247    1.612143    0.000000
siesta:     67    0.298662    0.177685    0.000000
siesta:     68   -1.401835   -2.393384    0.000000
siesta:     69   -0.796242   -0.521904    0.000000
siesta:     70   19.745567 -575.018182    0.000000
siesta:     71   24.001214    4.383913    0.000000
siesta:     72   28.405979 -561.435554    0.000000
siesta: ----------------------------------------
siesta:    Tot   -0.329858   -0.071670    0.000000

siesta: Stress tensor (static) (eV/Ang**3):
siesta:    -0.383273    0.008395    0.000000
siesta:     0.008395   -2.095545    0.000000
siesta:     0.000000    0.000000   -0.000002

siesta: Cell volume =       1893.226884 Ang**3

siesta: Pressure (static):
siesta:                Solid            Molecule  Units
siesta:           0.00899917          0.14763476  Ry/Bohr**3
siesta:           0.82627303         13.55532192  eV/Ang**3
siesta:        1323.84965724      21718.25479688  kBar
(Free)E+ p_basis*V_orbitals  =      -13277.621008
(Free)Eharris+ p_basis*V_orbitals  =      -13277.623373

siesta: Electric dipole (a.u.)  =    0.000000    0.000000    0.000000
siesta: Electric dipole (Debye) =    0.000000    0.000000    0.000000

* Maximum dynamic memory allocated : Node    0 =   194 MB
* Maximum dynamic memory allocated : Node    1 =    71 MB
* Maximum dynamic memory allocated : Node    2 =    73 MB
* Maximum dynamic memory allocated : Node    3 =   184 MB
* Maximum dynamic memory allocated : Node    4 =   188 MB
* Maximum dynamic memory allocated : Node    5 =    71 MB
* Maximum dynamic memory allocated : Node    6 =    72 MB
* Maximum dynamic memory allocated : Node    7 =   173 MB

* Maximum memory occured during matrixMtoO                    

timer: CPU execution times:
timer:  Routine       Calls   Time/call    Tot.time        %
timer:  siesta            1  174789.218  174789.218   100.00
timer:  Setup             1       3.119       3.119     0.00
timer:  bands             3     272.330     816.991     0.47
timer:  writewave         1       0.018       0.018     0.00
timer:  KSV_init          1       0.003       0.003     0.00
timer:  IterMD            1  173963.244  173963.244    99.53
timer:  hsparse           1       0.236       0.236     0.00
timer:  overlap           1       7.702       7.702     0.00
timer:  IterSCF          42    4138.257  173806.809    99.44
timer:  kinefsm           2       3.947       7.894     0.00
timer:  nlefsm            2      18.548      37.096     0.02
timer:  DHSCF            43      80.117    3445.018     1.97
timer:  DHSCF1            1       0.766       0.766     0.00
timer:  DHSCF2            1      32.353      32.353     0.02
timer:  REORD           346       0.011       3.858     0.00
timer:  POISON           44       2.474     108.856     0.06
timer:  DHSCF3           43      78.613    3380.377     1.93
timer:  rhoofd           43      16.060     690.591     0.40
timer:  cellXC           43       3.443     148.051     0.08
timer:  vmat             43      37.566    1615.343     0.92
timer:  MolMec            2       0.000       0.000     0.00
timer:  diagon           42    4056.871  170388.572    97.48
timer:  c-eigval       9823       6.769   66493.253    38.04
timer:  c-buildHS      9823       0.132    1301.378     0.74
timer:  cdiag         19525       6.960  135885.508    77.74
timer:  cdiag1        19525       0.434    8483.132     4.85
timer:  cdiag2        19525       1.923   37544.814    21.48
timer:  cdiag3        19525       3.982   77740.420    44.48
timer:  cdiag4        19525       0.215    4193.657     2.40
timer:  c-eigvec       9702       7.357   71376.461    40.84
timer:  c-buildD       9702       3.430   33280.802    19.04
timer:  DHSCF4            1      28.881      28.881     0.02
timer:  dfscf             1      27.107      27.107     0.02
timer:  overfsm           1       0.391       0.391     0.00
timer:  optical           1       5.127       5.127     0.00
  

elaps: ELAPSED times:
elaps:  Routine       Calls   Time/call    Tot.time        %
elaps:  siesta            1   21873.331   21873.331   100.00
elaps:  Setup             1       0.388       0.388     0.00
elaps:  bands             3      34.093     102.280     0.47
elaps:  writewave         1       0.002       0.002     0.00
elaps:  KSV_init          1       0.001       0.001     0.00
elaps:  IterMD            1   21769.987   21769.987    99.53
elaps:  hsparse           1       0.029       0.029     0.00
elaps:  overlap           1       0.969       0.969     0.00
elaps:  IterSCF          42     517.867   21750.417    99.44
elaps:  kinefsm           2       0.498       0.996     0.00
elaps:  nlefsm            2       2.362       4.725     0.02
elaps:  DHSCF            43      10.108     434.632     1.99
elaps:  DHSCF1            1       0.099       0.099     0.00
elaps:  DHSCF2            1       4.044       4.044     0.02
elaps:  REORD           346       0.002       0.523     0.00
elaps:  POISON           44       0.309      13.594     0.06
elaps:  DHSCF3           43       9.836     422.936     1.93
elaps:  rhoofd           43       4.284     184.194     0.84
elaps:  cellXC           43       0.430      18.476     0.08
elaps:  vmat             43       4.700     202.090     0.92
elaps:  MolMec            2       0.000       0.000     0.00
elaps:  diagon           42     507.705   21323.609    97.49
elaps:  c-eigval       9823       0.847    8319.688    38.04
elaps:  c-buildHS      9823       0.018     176.521     0.81
elaps:  cdiag         19525       0.858   16746.581    76.56
elaps:  cdiag1        19525       0.054    1051.127     4.81
elaps:  cdiag2        19525       0.241    4698.189    21.48
elaps:  cdiag3        19525       0.499    9740.664    44.53
elaps:  cdiag4        19525       0.027     523.331     2.39
elaps:  c-eigvec       9702       0.901    8736.804    39.94
elaps:  c-buildD       9702       0.449    4360.714    19.94
elaps:  DHSCF4            1       7.186       7.186     0.03
elaps:  dfscf             1       6.818       6.818     0.03
elaps:  overfsm           1       0.051       0.051     0.00
elaps:  optical           1       0.000       0.000     0.00
  
>> End of run:  22-APR-2016   0:33:35
