
#FDF: Opened INPUT_TMP.04776      for input. Unit: 12

fdf-debug              0     # Default value
SystemName     GRP_doping                                                                                                                          
SystemLabel     GRP_doping                                                                                                                          
XML.Write              T     # Default value
Write.XML              T     # Default value
XML.AbortOnErrors              F     # Default value
XML.AbortOnWarnings              F     # Default value
alloc_report_level              0     # Default value
xc.functional     GGA                                                                                                                                 
xc.authors     PBE                                                                                                                                 
MM.Cutoff          30.00000000     Bohr     # Default value
MM.UnitsEnergy     eV     # Default value
MM.UnitsDistance     Ang     # Default value
WriteIonPlotFiles              F     # Default value
Atom.Debug.KB.Generation              F     # Default value
user-basis              F     # Default value
user-basis-netcdf              F     # Default value
ReparametrizePseudos              F     # Default value
Restricted.Radial.Grid              T     # Default value
Rmax.Radial.Grid          0.000000000         # Default value
PAO.BasisSize     DZP                                                                                                                                 
PAO.BasisType     split                                                                                                                               
PAO.SoftDefault              F     # Default value
PAO.SoftInnerRadius         0.9000000000         # Default value
PAO.SoftPotential          40.00000000         # Default value
PAO.SplitNorm         0.1500000000    
PAO.SplitNormH         -1.000000000         # Default value
Number_of_species                        2

%block ChemicalSpeciesLabel                                                    
 1 6 C                                                                         
 2 5 B                                                                         
%endblock ChemicalSpeciesLabel                                                 
 
FilterCutoff          0.000000000     Ry     # Default value
FilterTol          0.000000000     Ry     # Default value
KB.Rmax          6.000000000     Bohr     # Default value
PAO.EnergyShift         0.7349798845E-02         Ry
# Above item originally: PAO.EnergyShift          100.0000000     meV       
PAO.SplitTailNorm              F     # Default value
PAO.FixSplitTable              F     # Default value
PAO.NewSplitCode              F     # Default value
PAO.Filter              F     # Default value
PAO.Keep.Findp.Bug              F     # Default value
PAO.Filter              F     # Default value
PAO.Filter              F     # Default value
PAO.Filter              F     # Default value
PAO.OldStylePolorbs              T     # Default value
PAO.SplitTailNorm              F     # Default value
PAO.FixSplitTable              F     # Default value
PAO.NewSplitCode              F     # Default value
PAO.Filter              F     # Default value
Vna.Filter              F     # Default value
PCC.Filter              F     # Default value
FilterCutoff          0.000000000     Ry     # Default value
FilterTol          0.000000000     Ry     # Default value
KB.Rmax          6.000000000     Bohr     # Default value
PAO.EnergyShift         0.7349798845E-02         Ry
# Above item originally: PAO.EnergyShift          100.0000000     meV       
PAO.SplitTailNorm              F     # Default value
PAO.FixSplitTable              F     # Default value
PAO.NewSplitCode              F     # Default value
PAO.Filter              F     # Default value
PAO.Filter              F     # Default value
PAO.Filter              F     # Default value
PAO.Filter              F     # Default value
PAO.OldStylePolorbs              T     # Default value
PAO.SplitTailNorm              F     # Default value
PAO.FixSplitTable              F     # Default value
PAO.NewSplitCode              F     # Default value
PAO.Filter              F     # Default value
Vna.Filter              F     # Default value
PCC.Filter              F     # Default value
PAO.BasisType     split                                                                                                                               
Atom-Setup-Only              F     # Default value
UseStructFile              F     # Default value
MD.UseStructFile              F     # Default value
LatticeConstant          1.889726878           Bohr
# Above item originally: LatticeConstant          1.000000000     Ang       

%block LatticeVectors                                                          
   14.784999847     0.000000000     0.000000000                                
    7.393000126    12.805051838     0.000000000                                
    0.000000000     0.000000000    10.000000000                                
%endblock LatticeVectors                                                       
 

%block LatticeVectors                                                          
   14.784999847     0.000000000     0.000000000                                
    7.393000126    12.805051838     0.000000000                                
    0.000000000     0.000000000    10.000000000                                
%endblock LatticeVectors                                                       
 
AtomicCoordinatesFormat     Ang                                                                                                                                 
NumberOfAtoms                       72
ZM.UnitsLength     Bohr           # Default value
ZM.UnitsAngle     rad            # Default value
ZM.ForceTolLength         0.1555740000E-02 Ry/Bohr     # Default value
ZM.ForceTolAngle         0.3565490000E-02 Ry/rad     # Default value
ZM.MaxDisplLength         0.2000000000     Bohr     # Default value
ZM.MaxDisplAngle         0.3000000000E-02 rad     # Default value
ZM.CalcAllForces              F     # Default value

%block AtomicCoordinatesAndAtomicSpecies                                       
     1.182995394     0.699025273     0.000000000    1    1                     
     2.414989843     1.410050883     0.000000000    1    2                     
    17.199990098    11.369411598     0.000000000    1    3                     
    18.431983252    12.080436588     0.000000000    1    4                     
    18.431850523     9.235332969     0.000000000    1    5                     
    19.663845440     9.946359485     0.000000000    1    6                     
    17.199792087     7.101256629     0.000000000    1    7                     
    18.431784800     7.812282382     0.000000000    1    8                     
    15.967731448     4.967179527     0.000000000    1    9                     
    17.199725923     5.678205279     0.000000000    1   10                     
    14.735669817     2.833102233     0.000000000    1   11                     
    15.967665064     3.544127795     0.000000000    1   12                     
    14.736067271    11.369411598     0.000000000    1   13                     
    15.968061306    12.080436588     0.000000000    1   14                     
     3.646918387     0.699025273     0.000000000    1   15                     
     4.878913000     1.410050883     0.000000000    1   16                     
     6.110840994     0.699025273     0.000000000    1   17                     
     7.342835387     1.410050883     0.000000000    1   18                     
     8.574763381     0.699025273     0.000000000    1   19                     
     9.806758655     1.410050883     0.000000000    1   20                     
    11.039686432     0.699025273     0.000000000    1   21                     
    12.271681707     1.410050883     0.000000000    1   22                     
    13.503609260     0.699025273     0.000000000    1   23                     
    14.735603653     1.410050883     0.000000000    1   24                     
     2.415055896     2.833102233     0.000000000    1   25                     
     3.647050372     3.544127795     0.000000000    1   26                     
     4.878978944     2.833102233     0.000000000    1   27                     
     6.110973089     3.544127795     0.000000000    1   28                     
     7.342901551     2.833102233     0.000000000    1   29                     
     8.574895917     3.544127795     0.000000000    1   30                     
     9.807824162     2.833102233     0.000000000    1   31                     
    11.039818528     3.544127795     0.000000000    1   32                     
    12.271747870     2.833102233     0.000000000    1   33                     
    13.503741355     3.544127795     0.000000000    1   34                     
     3.647116646     4.967179527     0.000000000    1   35                     
     4.879111232     5.678205279     0.000000000    1   36                     
     6.111039473     4.967179527     0.000000000    1   37                     
     7.343033949     5.678205279     0.000000000    1   38                     
     8.574961860     4.967179527     0.000000000    1   39                     
     4.879177395     7.101256629     0.000000000    1   40                     
     6.111171761     7.812282382     0.000000000    1   41                     
     7.343099892     7.101256629     0.000000000    1   42                     
     8.575094148     7.812282382     0.000000000    1   43                     
     6.111237484     9.235332969     0.000000000    1   44                     
     7.343231960     9.946359485     0.000000000    1   45                     
     8.575160091     9.235332969     0.000000000    1   46                     
     9.807155228     9.946359485     0.000000000    1   47                     
     7.343298344    11.369411598     0.000000000    1   48                     
     8.575292489    12.080436588     0.000000000    1   49                     
     9.808220734    11.369411598     0.000000000    1   50                     
    11.040215651    12.080436588     0.000000000    1   51                     
    13.503807739     4.967179527     0.000000000    1   52                     
    14.735802215     5.678205279     0.000000000    1   53                     
    12.271945551     7.101256629     0.000000000    1   54                     
    13.503940027     7.812282382     0.000000000    1   55                     
    11.040082922     9.235332969     0.000000000    1   56                     
    12.272077839     9.946359485     0.000000000    1   57                     
    14.735868378     7.101256629     0.000000000    1   58                     
    15.967863736     7.812282382     0.000000000    1   59                     
    13.504005750     9.235332969     0.000000000    1   60                     
    14.736000666     9.946359485     0.000000000    1   61                     
    12.272144443    11.369411598     0.000000000    1   62                     
    13.504138038    12.080436588     0.000000000    1   63                     
    15.967929458     9.235332969     0.000000000    1   64                     
    17.199924375     9.946359485     0.000000000    1   65                     
    19.664913149    11.369411598     0.000000000    1   66                     
    20.896906304    12.080436588     0.000000000    1   67                     
     9.806956776     5.678205279     0.000000000    2   68                     
    11.039884911     4.967179527     0.000000000    2   69                     
    12.271879387     5.678205279     0.000000000    2   70                     
     9.808022283     7.101256629     0.000000000    2   71                     
    11.040017199     7.812282382     0.000000000    2   72                     
%endblock AtomicCoordinatesAndAtomicSpecies                                    
 
UseSaveData              F     # Default value
MD.UseSaveXV              F     # Default value
MD.UseSaveZM              F     # Default value
WriteCoorInitial              T     # Default value
MD.TypeOfRun     none     # Default value
MaxBondDistance          6.000000000     Bohr     # Default value
Output-Structure-Only              F     # Default value
SpinPolarized              F     # Default value
NonCollinearSpin              F     # Default value
LongOutput              F     # Default value
WriteDenchar              F     # Default value
WriteMullikenPop              0     # Default value
WriteHirshfeldPop              F     # Default value
WriteVoronoiPop              F     # Default value
PartialChargesAtEveryGeometry              F     # Default value
PartialChargesAtEveryScfStep              F     # Default value
MeshCutoff          200.0000000             Ry
# Above item originally: MeshCutoff          200.0000000     Ry        
NetCharge          0.000000000         # Default value
MaxSCFIterations                      500
SCFMustConverge              T
DM.NumberPulay                       10
DM.NumberBroyden              0     # Default value
DM.FIRE.Mixing              F     # Default value
DM.MixSCF1              F     # Default value
DM.PulayOnFile              F
DM.Pulay.Avoid.First.After.Kick              F     # Default value
DM.MixingWeight         0.5000000000E-01
DM.OccupancyTolerance         0.1000000000E-11     # Default value
DM.NumberKick              0     # Default value
DM.KickMixingWeight         0.5000000000         # Default value
DM.Tolerance         0.1000000000E-03
DM.RequireEnergyConvergence              F     # Default value
DM.EnergyTolerance         0.7349806700E-05 Ry     # Default value
DM.RequireHarrisConvergence              F     # Default value
DM.HarrisTolerance         0.7349806700E-05 Ry     # Default value
UseSaveData              F     # Default value
DM.UseSaveDM              T
NeglNonOverlapInt              F
SolutionMethod     Diagon                                                                                                                              
Diag.DivideAndConquer              T     # Default value
Diag.Memory          1.000000000         # Default value
ElectronicTemperature         0.1900069269E-02         Ry
# Above item originally: ElectronicTemperature          300.0000000     K         
FixSpin              F     # Default value
ON.MaxNumIter           1000     # Default value
ON.etol         0.1000000000E-07     # Default value
ON.eta          0.000000000     Ry     # Default value
ON.eta_alpha          0.000000000     Ry     # Default value
ON.eta_beta          0.000000000     Ry     # Default value
On.RcLWF          9.500000000     Bohr     # Default value
ON.UseSaveLWF              F     # Default value
ON.functional     kim     # Default value
ON.ChemicalPotentialUse              F     # Default value
ON.ChemicalPotential              F     # Default value
ON.ChemicalPotentialRc          9.500000000     Bohr     # Default value
ON.ChemicalPotentialTemperature         0.5000000000E-01 Ry     # Default value
ON.ChemicalPotentialOrder            100     # Default value
MD.VariableCell              F     # Default value
MD.TypeOfRun     verlet     # Default value
MD.NumCGsteps              0     # Default value
MD.MaxCGDispl         0.2000000000     Bohr     # Default value
MD.MaxForceTol         0.1555740000E-02 Ry/Bohr     # Default value
MD.MaxStressTol         0.6797730000E-04 Ry/Bohr**3     # Default value
MD.InitialTimeStep              1     # Default value
MD.FinalTimeStep              1     # Default value
MD.LengthTimeStep          1.000000000     fs     # Default value
MD.Quench              F     # Default value
MD.FireQuench              F     # Default value
MD.InitialTemperature          0.000000000     K     # Default value
MD.TargetTemperature          0.000000000     K     # Default value
MD.TargetPressure          0.000000000     Ry/Bohr**3     # Default value
MD.NoseMass          100.0000000     Ry*fs**2     # Default value
MD.ParrinelloRahmanMass          100.0000000     Ry*fs**2     # Default value
MD.AnnealOption     TemperatureAndPressure     # Default value
MD.TauRelax          100.0000000     fs     # Default value
MD.BulkModulus         0.6797730000E-02 Ry/Bohr**3     # Default value
MD.FCDispl         0.4000000000E-01 Bohr     # Default value
MD.FCfirst              1     # Default value
MD.FClast             72     # Default value
UseSpatialDecomposition              F     # Default value
UseDomainDecomposition              F     # Default value
Harris_functional              F     # Default value
WriteKpoints              F     # Default value
WriteForces              F     # Default value
WriteDM              T     # Default value
WriteDM.NetCDF              T     # Default value
WriteDM.History.NetCDF              F     # Default value
WriteDMHS.NetCDF              T     # Default value
WriteDMHS.History.NetCDF              F     # Default value
SCF.Read.Charge.NetCDF              F     # Default value
SCF.Read.Deformation.Charge.NetCDF              F     # Default value
SaveInitialChargeDensity              F     # Default value
UseNewDiagk              F     # Default value
WriteBands              F     # Default value
WriteKbands              F     # Default value
WriteEigenvalues              F     # Default value
WriteCoorStep              F     # Default value
WriteMDhistory              F     # Default value
WriteMDXmol              F     # Default value
UseSaveData              F     # Default value
SaveHS              F     # Default value
FixAuxiliaryCell              F     # Default value
NaiveAuxiliaryCell              F     # Default value
ReInitialiseDM              T     # Default value
DM.AllowReuse              T     # Default value
DM.AllowExtrapolation              T     # Default value
MullikenInSCF              F     # Default value
WarningMinimumAtomicDistance          1.000000000     Bohr     # Default value
BornCharge              F     # Default value
ChangeKgridInMD              F     # Default value
Diag.ParallelOverK              F     # Default value
MD.RelaxCellOnly              F     # Default value
MD.RemoveIntraMolecularPressure              F     # Default value
COOP.Write              F     # Default value
SaveRho              F     # Default value
SaveDeltaRho              F     # Default value
SaveElectrostaticPotential              F     # Default value
SaveNeutralAtomPotential              F     # Default value
SaveTotalPotential              F     # Default value
SaveIonicCharge              F     # Default value
SaveBaderCharge              F     # Default value
SaveTotalCharge              F     # Default value
RcSpatial          0.000000000     Bohr     # Default value
ProcessorGridX              1     # Default value
ProcessorGridY              1     # Default value
ProcessorGridZ              1     # Default value
processorY              2     # Default value
blocksize             24     # Default value
NumberOfEigenStates            936     # Default value
TimeReversalSymmetryForKpoints              T     # Default value

%block kgrid_Monkhorst_Pack                                                    
  26   0   0   0.0                                                             
   0  26   0   0.0                                                             
   0   0   1   0.0                                                             
%endblock kgrid_Monkhorst_Pack                                                 
 
WFS.EnergyMin        -0.1797693135+309 Ry     # Default value
WFS.EnergyMax         0.1797693135+309 Ry     # Default value
LongOutput              F     # Default value
WriteWaveFunctions              F     # Default value
WriteWaveDebug              F     # Default value
ForceAuxCell              F     # Default value
AtomicCoordinatesFormat     Ang                                                                                                                                 
AtomCoorFormatOut     Ang                        # Default value
LatticeConstant          1.889726878           Bohr
# Above item originally: LatticeConstant          1.000000000     Ang       
DM.FormattedFiles              F     # Default value
DM.FormattedInput              F     # Default value
DM.FormattedOutput              F     # Default value
Harris_functional              F     # Default value
MeshSubDivisions              2     # Default value
LatticeConstant          1.889726878           Bohr
# Above item originally: LatticeConstant          1.000000000     Ang       

%block LatticeVectors                                                          
   14.784999847     0.000000000     0.000000000                                
    7.393000126    12.805051838     0.000000000                                
    0.000000000     0.000000000    10.000000000                                
%endblock LatticeVectors                                                       
 

%block LatticeVectors                                                          
   14.784999847     0.000000000     0.000000000                                
    7.393000126    12.805051838     0.000000000                                
    0.000000000     0.000000000    10.000000000                                
%endblock LatticeVectors                                                       
 
DirectPhi              F     # Default value
SimulateDoping              F     # Default value
SlabDipoleCorrection              F     # Default value
Diag.ParallelOverK              F     # Default value
LatticeConstant          1.889726878           Bohr
# Above item originally: LatticeConstant          1.000000000     Ang       

%block LatticeVectors                                                          
   14.784999847     0.000000000     0.000000000                                
    7.393000126    12.805051838     0.000000000                                
    0.000000000     0.000000000    10.000000000                                
%endblock LatticeVectors                                                       
 

%block LatticeVectors                                                          
   14.784999847     0.000000000     0.000000000                                
    7.393000126    12.805051838     0.000000000                                
    0.000000000     0.000000000    10.000000000                                
%endblock LatticeVectors                                                       
 
Diag.AllInOne              F     # Default value
Diag.DivideAndConquer              T     # Default value
Diag.NoExpert              F     # Default value
Diag.PreRotate              F     # Default value
Diag.Use2D              T     # Default value
SingleExcitation              F     # Default value
OccupationFunction     FD     # Default value
OccupationFunction     FD     # Default value
WriteCoorXmol              F     # Default value
WriteCoorCerius              F     # Default value
BasisPressure         0.2000000000     GPa     # Default value
OpticalCalculation              F     # Default value
