Siesta Version:                                        siesta-3.2-pl-3
Architecture  : x86_64-unknown-linux-gnu--unknown
Compiler flags: mpiifort -g -O2 -fPIC -xSSE4.1 -fp-model source -shared-intel 
PARALLEL version

* Running on    8 nodes in parallel
>> Start of run:  25-APR-2016   0:06:12

                           ***********************       
                           *  WELCOME TO SIESTA  *       
                           ***********************       

reinit: Reading from standard input
************************** Dump of input data file ****************************
#(1) General system descriptors
SystemName            GRP_doping    # Descriptive name of the system
SystemLabel           GRP_doping    # Short name for naming files
%include STRUCT.fdf
%include KPT.fdf
%include BASIS.fdf
#%include TS.fdf # for transiesta calculation
#(4) DFT, Grid, SCF
XC.functional         GGA           # LDA or GGA (default = LDA)
XC.authors            PBE           # CA (Ceperley-Aldr) = PZ
                                    #    (Perdew-Zunger) - LDA - Default
                                    # PW92 (Perdew-Wang-92) - LDA
                                    # PBE (Perdew-Burke-Ernzerhof) - GGA
MeshCutoff            200.000000    Ry      # Default: 50.0 Ry ~ 0.444 Bohr
                                    #         100.0 Ry ~ 0.314 Bohr
MaxSCFIterations      500           # Default: 50
DM.MixingWeight       0.05          # Default: 0.25
DM.NumberPulay        10            # Default: 0
DM.PulayOnFile        F             # SystemLabel.P1, SystemLabel.P2
DM.Tolerance          1.d-4         # Default: 1.d-4
DM.UseSaveDM          .true.        # because of the bug
SCFMustConverge       .true.
NeglNonOverlapInt     F             # Default: F
#(5) Eigenvalue problem: order-N or diagonalization
SolutionMethod        Diagon        # or Transiesta
ElectronicTemperature 300.0 K       # Default: 300.0 K
#(6) Molecular dynamics and relaxations
#MD.TypeOfRun          CG            # Type of dynamics:
#MD.VariableCell       F
#MD.NumCGsteps         0           # 0 for single-point / 100 for gopt
#MD.MaxCGDispl         0.2 Bohr      # Default: 0.2 Bohr
#MD.MaxForceTol        0.02 eV/Ang   # Default: 0.04 eV/Ang
#MD.MaxStressTol       1.0 GPa       # Default: 1.0 GPa
# Geometry Constraints
#%block GeometryConstraints
#	position from 1 to 44
#%endblock GeometryConstraints
BandLinesScale   pi/a
%block BandLines
 1   0.00000000  0.00000000  0.00000000
50   0.00000000  0.07809418  0.00000000
50   0.04509075  0.07809242  0.00000000
20   0.00000000  0.00000000  0.00000000
%endblock BandLines
************************** End of input data file *****************************

reinit: -----------------------------------------------------------------------
reinit: System Name: GRP_doping
reinit: -----------------------------------------------------------------------
reinit: System Label: GRP_doping                                                  
reinit: -----------------------------------------------------------------------

initatom: Reading input for the pseudopotentials and atomic orbitals ----------
 Species number:            1  Label: B Atomic number:           5
 Species number:            2  Label: C Atomic number:           6
Ground state valence configuration:   2s02  2p01
Reading pseudopotential information in formatted form from B.psf

Valence configuration for pseudopotential generation:
2s( 2.00) rc: 1.74
2p( 1.00) rc: 1.74
3d( 0.00) rc: 1.74
4f( 0.00) rc: 1.74
Ground state valence configuration:   2s02  2p02
Reading pseudopotential information in formatted form from C.psf

Valence configuration for pseudopotential generation:
2s( 2.00) rc: 1.54
2p( 2.00) rc: 1.54
3d( 0.00) rc: 1.54
4f( 0.00) rc: 1.54
For B, standard SIESTA heuristics set lmxkb to 3
 (one more than the basis l, including polarization orbitals).
Use PS.lmax or PS.KBprojectors blocks to override.
For C, standard SIESTA heuristics set lmxkb to 3
 (one more than the basis l, including polarization orbitals).
Use PS.lmax or PS.KBprojectors blocks to override.

<basis_specs>
===============================================================================
B                    Z=   5    Mass=  10.810        Charge= 0.17977+309
Lmxo=1 Lmxkb= 3    BasisType=split      Semic=F
L=0  Nsemic=0  Cnfigmx=2
          n=1  nzeta=2  polorb=0
            splnorm:   0.15000    
               vcte:    0.0000    
               rinn:    0.0000    
                rcs:    0.0000      0.0000    
            lambdas:    1.0000      1.0000    
L=1  Nsemic=0  Cnfigmx=2
          n=1  nzeta=2  polorb=1
            splnorm:   0.15000    
               vcte:    0.0000    
               rinn:    0.0000    
                rcs:    0.0000      0.0000    
            lambdas:    1.0000      1.0000    
-------------------------------------------------------------------------------
L=0  Nkbl=1  erefs: 0.17977+309
L=1  Nkbl=1  erefs: 0.17977+309
L=2  Nkbl=1  erefs: 0.17977+309
L=3  Nkbl=1  erefs: 0.17977+309
===============================================================================
</basis_specs>

atom: Called for B                     (Z =   5)

read_vps: Pseudopotential generation method:
read_vps: ATM3      Troullier-Martins                       
Total valence charge:    3.00000

read_vps: Pseudopotential includes a core correction:
read_vps: Pseudo-core for xc-correction

xc_check: Exchange-correlation functional:
xc_check: GGA Perdew, Burke & Ernzerhof 1996
V l=0 = -2*Zval/r beyond r=  1.7165
V l=1 = -2*Zval/r beyond r=  1.7165
V l=2 = -2*Zval/r beyond r=  1.7165
V l=3 = -2*Zval/r beyond r=  1.6951
All V_l potentials equal beyond r=  1.7165
This should be close to max(r_c) in ps generation
All pots = -2*Zval/r beyond r=  1.7165

VLOCAL1: 99.0% of the norm of Vloc inside     14.733 Ry
VLOCAL1: 99.9% of the norm of Vloc inside     33.577 Ry
atom: Maximum radius for 4*pi*r*r*local-pseudopot. charge    2.04484
atom: Maximum radius for r*vlocal+2*Zval:    1.75994
GHOST: No ghost state for L =  0
GHOST: No ghost state for L =  1
GHOST: No ghost state for L =  2
GHOST: No ghost state for L =  3

KBgen: Kleinman-Bylander projectors: 
   l= 0   rc=  1.897051   el= -0.693730   Ekb=  4.595746   kbcos=  0.286105
   l= 1   rc=  1.920920   el= -0.265236   Ekb= -2.350715   kbcos= -0.315747
   l= 2   rc=  2.044840   el=  0.002055   Ekb= -0.690767   kbcos= -0.013822
   l= 3   rc=  2.149707   el=  0.003188   Ekb= -0.315358   kbcos= -0.002055

KBgen: Total number of  Kleinman-Bylander projectors:   16
atom: -------------------------------------------------------------------------

atom: SANKEY-TYPE ORBITALS:
atom: Selected multiple-zeta basis: split     

SPLIT: Orbitals with angular momentum L= 0

SPLIT: Basis orbitals for state 2s

SPLIT: PAO cut-off radius determined from an
SPLIT: energy shift=  0.007350 Ry

   izeta = 1
                 lambda =    1.000000
                     rc =    5.422032
                 energy =   -0.686029
                kinetic =    0.576707
    potential(screened) =   -1.262736
       potential(ionic) =   -3.271094

   izeta = 2
                 rmatch =    4.222573
              splitnorm =    0.150000
                 energy =   -0.602132
                kinetic =    0.858975
    potential(screened) =   -1.461107
       potential(ionic) =   -3.582536

SPLIT: Orbitals with angular momentum L= 1

SPLIT: Basis orbitals for state 2p

SPLIT: PAO cut-off radius determined from an
SPLIT: energy shift=  0.007350 Ry

   izeta = 1
                 lambda =    1.000000
                     rc =    6.790259
                 energy =   -0.258578
                kinetic =    1.481412
    potential(screened) =   -1.739989
       potential(ionic) =   -3.657461

   izeta = 2
                 rmatch =    4.608740
              splitnorm =    0.150000
                 energy =   -0.173757
                kinetic =    2.186690
    potential(screened) =   -2.360447
       potential(ionic) =   -4.464260

POLgen: Perturbative polarization orbital with L=  2

POLgen: Polarization orbital for state 2p

   izeta = 1
                     rc =    6.790259
                 energy =    0.684082
                kinetic =    1.471481
    potential(screened) =   -0.787399
       potential(ionic) =   -2.406985
atom: Total number of Sankey-type orbitals: 13

atm_pop: Valence configuration (for local Pseudopot. screening):
 2s( 2.00)                                                            
 2p( 1.00)                                                            
Vna: chval, zval:    3.00000   3.00000

Vna:  Cut-off radius for the neutral-atom potential:   6.790259
comcore: Pseudo-core radius Rcore=  2.122997

atom: _________________________________________________________________________

<basis_specs>
===============================================================================
C                    Z=   6    Mass=  12.010        Charge= 0.17977+309
Lmxo=1 Lmxkb= 3    BasisType=split      Semic=F
L=0  Nsemic=0  Cnfigmx=2
          n=1  nzeta=2  polorb=0
            splnorm:   0.15000    
               vcte:    0.0000    
               rinn:    0.0000    
                rcs:    0.0000      0.0000    
            lambdas:    1.0000      1.0000    
L=1  Nsemic=0  Cnfigmx=2
          n=1  nzeta=2  polorb=1
            splnorm:   0.15000    
               vcte:    0.0000    
               rinn:    0.0000    
                rcs:    0.0000      0.0000    
            lambdas:    1.0000      1.0000    
-------------------------------------------------------------------------------
L=0  Nkbl=1  erefs: 0.17977+309
L=1  Nkbl=1  erefs: 0.17977+309
L=2  Nkbl=1  erefs: 0.17977+309
L=3  Nkbl=1  erefs: 0.17977+309
===============================================================================
</basis_specs>

atom: Called for C                     (Z =   6)

read_vps: Pseudopotential generation method:
read_vps: ATM3      Troullier-Martins                       
Total valence charge:    4.00000

read_vps: Pseudopotential includes a core correction:
read_vps: Pseudo-core for xc-correction

xc_check: Exchange-correlation functional:
xc_check: GGA Perdew, Burke & Ernzerhof 1996
V l=0 = -2*Zval/r beyond r=  1.5227
V l=1 = -2*Zval/r beyond r=  1.5227
V l=2 = -2*Zval/r beyond r=  1.5227
V l=3 = -2*Zval/r beyond r=  1.5038
All V_l potentials equal beyond r=  1.5227
This should be close to max(r_c) in ps generation
All pots = -2*Zval/r beyond r=  1.5227

VLOCAL1: 99.0% of the norm of Vloc inside     18.722 Ry
VLOCAL1: 99.9% of the norm of Vloc inside     42.668 Ry
atom: Maximum radius for 4*pi*r*r*local-pseudopot. charge    1.83678
atom: Maximum radius for r*vlocal+2*Zval:    1.58088
GHOST: No ghost state for L =  0
GHOST: No ghost state for L =  1
GHOST: No ghost state for L =  2
GHOST: No ghost state for L =  3

KBgen: Kleinman-Bylander projectors: 
   l= 0   rc=  1.704034   el= -1.009801   Ekb=  5.335044   kbcos=  0.316824
   l= 1   rc=  1.704034   el= -0.388707   Ekb= -3.785862   kbcos= -0.366464
   l= 2   rc=  1.791422   el=  0.001971   Ekb= -0.970471   kbcos= -0.009212
   l= 3   rc=  1.859892   el=  0.003065   Ekb= -0.399525   kbcos= -0.001223

KBgen: Total number of  Kleinman-Bylander projectors:   16
atom: -------------------------------------------------------------------------

atom: SANKEY-TYPE ORBITALS:
atom: Selected multiple-zeta basis: split     

SPLIT: Orbitals with angular momentum L= 0

SPLIT: Basis orbitals for state 2s

SPLIT: PAO cut-off radius determined from an
SPLIT: energy shift=  0.007350 Ry

   izeta = 1
                 lambda =    1.000000
                     rc =    4.632753
                 energy =   -1.002270
                kinetic =    0.855760
    potential(screened) =   -1.858031
       potential(ionic) =   -5.417575

   izeta = 2
                 rmatch =    3.431921
              splitnorm =    0.150000
                 energy =   -0.867111
                kinetic =    1.300804
    potential(screened) =   -2.167915
       potential(ionic) =   -5.962684

SPLIT: Orbitals with angular momentum L= 1

SPLIT: Basis orbitals for state 2p

SPLIT: PAO cut-off radius determined from an
SPLIT: energy shift=  0.007350 Ry

   izeta = 1
                 lambda =    1.000000
                     rc =    5.658549
                 energy =   -0.381140
                kinetic =    2.399701
    potential(screened) =   -2.780841
       potential(ionic) =   -6.206085

   izeta = 2
                 rmatch =    3.653288
              splitnorm =    0.150000
                 energy =   -0.249149
                kinetic =    3.542762
    potential(screened) =   -3.791911
       potential(ionic) =   -7.581078

POLgen: Perturbative polarization orbital with L=  2

POLgen: Polarization orbital for state 2p

   izeta = 1
                     rc =    5.658549
                 energy =    1.109913
                kinetic =    2.304789
    potential(screened) =   -1.194876
       potential(ionic) =   -4.013592
atom: Total number of Sankey-type orbitals: 13

atm_pop: Valence configuration (for local Pseudopot. screening):
 2s( 2.00)                                                            
 2p( 2.00)                                                            
Vna: chval, zval:    4.00000   4.00000

Vna:  Cut-off radius for the neutral-atom potential:   5.658549
comcore: Pseudo-core radius Rcore=  1.791422

atom: _________________________________________________________________________

prinput: Basis input ----------------------------------------------------------

PAO.BasisType split     

%block ChemicalSpeciesLabel
    1    5 B                       # Species index, atomic number, species label
    2    6 C                       # Species index, atomic number, species label
%endblock ChemicalSpeciesLabel

%block PAO.Basis                 # Define Basis set
B                     2                    # Species label, number of l-shells
 n=2   0   2                         # n, l, Nzeta 
   5.422      4.223   
   1.000      1.000   
 n=2   1   2 P   1                   # n, l, Nzeta, Polarization, NzetaPol
   6.790      4.609   
   1.000      1.000   
C                     2                    # Species label, number of l-shells
 n=2   0   2                         # n, l, Nzeta 
   4.633      3.432   
   1.000      1.000   
 n=2   1   2 P   1                   # n, l, Nzeta, Polarization, NzetaPol
   5.659      3.653   
   1.000      1.000   
%endblock PAO.Basis

prinput: ----------------------------------------------------------------------

coor:   Atomic-coordinates input format  =     Fractional

siesta: Atomic coordinates (Bohr) and species
siesta:      4.63094  34.85847   0.00000  1        1
siesta:      4.63094  37.54693   0.00000  1        2
siesta:      6.95932  30.82560   0.00000  1        3
siesta:     -0.02582  13.34970   0.00000  1        4
siesta:      2.30256  14.69411   0.00000  1        5
siesta:      2.30256  17.38257   0.00000  1        6
siesta:      4.63094  18.72698   0.00000  1        7
siesta:      4.63094  21.41544   0.00000  1        8
siesta:      6.95932  22.75985   0.00000  1        9
siesta:      6.95932  25.44831   0.00000  1       10
siesta:     -4.68258  10.66124   0.00000  1       11
siesta:     -2.35420  14.69411   0.00000  1       12
siesta:     -0.02582  18.72698   0.00000  1       13
siesta:      2.30256  22.75985   0.00000  1       14
siesta:     -4.68258  21.41544   0.00000  1       15
siesta:     -2.35420  22.75985   0.00000  1       16
siesta:     -2.35420  25.44831   0.00000  1       17
siesta:      4.63094  26.79272   0.00000  1       18
siesta:     -0.02582  26.79272   0.00000  1       19
siesta:     -0.02582  29.48119   0.00000  1       20
siesta:      2.30256  30.82560   0.00000  1       21
siesta:      2.30256  33.51406   0.00000  1       22
siesta:     -0.02582   2.59549   0.00000  2       23
siesta:     -0.02582   5.28395   0.00000  2       24
siesta:     -2.35420  38.89134   0.00000  2       25
siesta:     -2.35420  41.57980   0.00000  2       26
siesta:      2.30256  38.89134   0.00000  2       27
siesta:      2.30256  41.57980   0.00000  2       28
siesta:      6.95932  33.51406   0.00000  2       29
siesta:      9.28770  26.79272   0.00000  2       30
siesta:      9.28770  29.48119   0.00000  2       31
siesta:     -4.68258  34.85847   0.00000  2       32
siesta:     -4.68258  37.54693   0.00000  2       33
siesta:      2.30256   6.62836   0.00000  2       34
siesta:      2.30256   9.31683   0.00000  2       35
siesta:      4.63094  10.66124   0.00000  2       36
siesta:      4.63094  13.34970   0.00000  2       37
siesta:      6.95932  14.69411   0.00000  2       38
siesta:      6.95932  17.38257   0.00000  2       39
siesta:      9.28770  18.72698   0.00000  2       40
siesta:      9.28770  21.41544   0.00000  2       41
siesta:     11.61608  22.75985   0.00000  2       42
siesta:     11.61608  25.44831   0.00000  2       43
siesta:     -2.35420   6.62836   0.00000  2       44
siesta:     -2.35420   9.31683   0.00000  2       45
siesta:     -0.02582  10.66124   0.00000  2       46
siesta:     -4.68258  13.34970   0.00000  2       47
siesta:     -2.35420  17.38257   0.00000  2       48
siesta:     -0.02582  21.41544   0.00000  2       49
siesta:      2.30256  25.44831   0.00000  2       50
siesta:     -7.01096  14.69411   0.00000  2       51
siesta:     -7.01096  17.38257   0.00000  2       52
siesta:     -4.68258  18.72698   0.00000  2       53
siesta:     -9.33934  18.72698   0.00000  2       54
siesta:     -9.33934  21.41544   0.00000  2       55
siesta:     -7.01096  22.75985   0.00000  2       56
siesta:     -7.01096  25.44831   0.00000  2       57
siesta:    -11.66772  22.75985   0.00000  2       58
siesta:    -11.66772  25.44831   0.00000  2       59
siesta:     -9.33934  26.79272   0.00000  2       60
siesta:     -9.33934  29.48119   0.00000  2       61
siesta:      4.63094  29.48119   0.00000  2       62
siesta:     -4.68258  26.79272   0.00000  2       63
siesta:     -4.68258  29.48119   0.00000  2       64
siesta:     -2.35420  30.82560   0.00000  2       65
siesta:     -2.35420  33.51406   0.00000  2       66
siesta:     -7.01096  30.82560   0.00000  2       67
siesta:     -7.01096  33.51406   0.00000  2       68
siesta:     -0.02582  34.85847   0.00000  2       69
siesta:     -0.02582  37.54693   0.00000  2       70
siesta:     -0.02582  42.92421   0.00000  2       71
siesta:     -0.02582  45.61267   0.00000  2       72

siesta: System type = slab      

initatomlists: Number of atoms, orbitals, and projectors:     72   936  1152

siesta: ******************** Simulation parameters ****************************
siesta:
siesta: The following are some of the parameters of the simulation.
siesta: A complete list of the parameters used, including default values,
siesta: can be found in file out.fdf
siesta:
redata: Non-Collinear-spin run           =     F
redata: SpinPolarized (Up/Down) run      =     F
redata: Number of spin components        =     1
redata: Long output                      =     F
redata: Number of Atomic Species         =        2
redata: Charge density info will appear in .RHO file
redata: Write Mulliken Pop.              =     NO
redata: Mesh Cutoff                      =   200.0000  Ry
redata: Net charge of the system         =     0.0000 |e|
redata: Max. number of SCF Iter          =      500
redata: SCF convergence failure will abort job
redata: Performing Pulay mixing using    =    10 iterations
redata: Mix DM in first SCF step ?       =     F
redata: Write Pulay info on disk?        =     F
redata: Discard 1st Pulay DM after  kick =     F
redata: New DM Mixing Weight             =     0.0500
redata: New DM Occupancy tolerance       = 0.000000000001
redata: No kicks to SCF
redata: DM Mixing Weight for Kicks       =     0.5000
redata: DM Tolerance for SCF             =     0.000100
redata: Require Energy convergence for SCF =     F
redata: DM Energy tolerance for SCF      =     0.000100 eV
redata: Require Harris convergence for SCF =     F
redata: DM Harris energy tolerance for SCF =     0.000100 eV
redata: Using Saved Data (generic)   =     F
redata: Use continuation files for DM    =     T
redata: Neglect nonoverlap interactions  =     F
redata: Method of Calculation            =     Diagonalization
redata: Divide and Conquer               =     T
redata: Electronic Temperature           =     0.0019  Ry
redata: Fix the spin of the system       =     F
redata: Dynamics option                  =     Verlet MD run
redata: Initial MD time step             =        1
redata:   Final MD time step             =        1
redata: Length of MD time step           =     1.0000  fs
redata: Initial Temperature of MD run    =     0.0000  K
redata: Perform a MD quench              =     F
redata: ***********************************************************************
Total number of electrons:   266.000000
Total ionic charge:   266.000000

* ProcessorY, Blocksize:    2  24

k-point displ. along   1 input, could be:     0.50    0.00
k-point displ. along   2 input, could be:     0.50    0.00
 Kpoints in:          231 . Kpoints trimmed:          231

siesta: k-grid: Number of k-points =   231
siesta: k-grid: Cutoff (effective) =     5.000 Ang
siesta: k-grid: Supercell and displacements
siesta: k-grid:   21   0   0      0.500
siesta: k-grid:    0  21   0      0.500
siesta: k-grid:    0   0   1      0.000
Naive supercell factors:     2    2    2

superc: Internal auxiliary supercell:     2 x     2 x     2  =       8
superc: Number of atoms, orbitals, and projectors:    576   7488   9216

* Maximum dynamic memory allocated =     4 MB

siesta:                 ==============================
                            Begin MD step =      1
                        ==============================

superc: Internal auxiliary supercell:     2 x     2 x     2  =       8
superc: Number of atoms, orbitals, and projectors:    576   7488   9216

outcell: Unit cell vectors (Ang):
       12.804619    7.392750    0.000000
        0.000000   14.785500    0.000000
        0.000000    0.000000   10.000000

outcell: Cell vector modules (Ang)   :   14.785500   14.785500   10.000000
outcell: Cell angles (23,13,12) (deg):     90.0000     90.0000     60.0000
outcell: Cell volume (Ang**3)        :   1893.2269
New_DM. Step:     1
Initializing Density Matrix...

InitMesh: MESH =   120 x   120 x    90 =     1296000
InitMesh: Mesh cutoff (required, used) =   200.000   223.865 Ry

* Maximum dynamic memory allocated =   223 MB

stepf: Fermi-Dirac step function

siesta: Program's energy decomposition (eV):
siesta: Ebs     =     -5453.673384
siesta: Eions   =     15585.763425
siesta: Ena     =      4165.540035
siesta: Ekin    =      5217.942150
siesta: Enl     =       819.907647
siesta: DEna    =        -0.000007
siesta: DUscf   =         0.000000
siesta: DUext   =         0.000000
siesta: Exc     =     -4196.937182
siesta: eta*DQ  =         0.000000
siesta: Emadel  =         0.000000
siesta: Emeta   =         0.000000
siesta: Emolmec =         0.000000
siesta: Ekinion =         0.000000
siesta: Eharris =     -9356.691382
siesta: Etot    =     -9579.310783
siesta: FreeEng =     -9579.310783

siesta: iscf   Eharris(eV)      E_KS(eV)   FreeEng(eV)   dDmax  Ef(eV)
siesta:    1    -9356.6914    -9579.3108    -9579.3108  6.4669 -8.4388
timer: Routine,Calls,Time,% = IterSCF        1    3511.712  99.66
elaps: Routine,Calls,Wall,% = IterSCF        1     439.876  99.66
siesta:    2   -15162.5678    -8516.9255    -8516.9762 18.9871 -4.5826
siesta:    3    -9304.3126    -9452.6109    -9452.6735  3.3712 -7.1517
siesta:    4    -9283.4359    -9342.0054    -9342.0828  1.2326 -6.0025
siesta:    5    -9234.3832    -9268.0947    -9268.1260  1.1396 -5.9606
siesta:    6    -9214.7143    -9211.5602    -9211.6250  1.0605 -5.7116
siesta:    7    -9209.8072    -9197.6244    -9197.6335  0.9514 -5.6040
siesta:    8    -9205.0893    -9187.8221    -9187.8569  0.7361 -5.5994
siesta:    9    -9204.1714    -9185.2372    -9185.2783  0.7709 -5.5530
siesta:   10    -9205.0409    -9177.9470    -9177.9898  0.4353 -5.4254
siesta:   11    -9203.8905    -9175.0559    -9175.1158  0.3544 -5.3803
siesta:   12    -9203.6218    -9173.5204    -9173.5706  0.2026 -5.3804
siesta:   13    -9203.0389    -9173.9545    -9174.0029  0.1755 -5.3811
siesta:   14    -9202.5131    -9179.3567    -9179.4049  0.2053 -5.4154
siesta:   15    -9202.1839    -9184.5824    -9184.6344  0.1335 -5.4318
siesta:   16    -9202.0765    -9189.8663    -9189.9199  0.1204 -5.4420
siesta:   17    -9202.0542    -9193.1186    -9193.1741  0.1390 -5.4405
siesta:   18    -9202.0172    -9195.7220    -9195.7762  0.0548 -5.4537
siesta:   19    -9201.9996    -9198.2813    -9198.3402  0.0458 -5.4666
siesta:   20    -9201.9945    -9200.5828    -9200.6394  0.0185 -5.4743
siesta:   21    -9201.9910    -9201.5292    -9201.5865  0.0228 -5.4778
siesta:   22    -9201.9880    -9202.4703    -9202.5265  0.0252 -5.4725
siesta:   23    -9201.9851    -9202.9736    -9203.0303  0.0115 -5.4548
siesta:   24    -9201.9840    -9202.7528    -9202.8102  0.0063 -5.4491
siesta:   25    -9201.9835    -9202.7657    -9202.8230  0.0096 -5.4463
siesta:   26    -9201.9835    -9202.6140    -9202.6713  0.0039 -5.4463
siesta:   27    -9201.9835    -9202.4586    -9202.5156  0.0036 -5.4469
siesta:   28    -9201.9834    -9202.3453    -9202.4022  0.0023 -5.4474
siesta:   29    -9201.9834    -9202.2368    -9202.2939  0.0022 -5.4478
siesta:   30    -9201.9833    -9202.1587    -9202.2158  0.0025 -5.4478
siesta:   31    -9201.9834    -9202.0337    -9202.0908  0.0018 -5.4481
siesta:   32    -9201.9834    -9202.0392    -9202.0962  0.0005 -5.4483
siesta:   33    -9201.9834    -9202.0295    -9202.0865  0.0004 -5.4483
siesta:   34    -9201.9834    -9202.0136    -9202.0707  0.0003 -5.4483
siesta:   35    -9201.9834    -9201.9912    -9202.0482  0.0003 -5.4482
siesta:   36    -9201.9834    -9201.9886    -9202.0457  0.0002 -5.4481
siesta:   37    -9201.9834    -9201.9870    -9202.0440  0.0001 -5.4481

siesta: E_KS(eV) =            -9201.9846

siesta: E_KS - E_eggbox =     -9201.9846

siesta: Atomic forces (eV/Ang):
----------------------------------------
   Tot   -0.241321   -0.094139    0.000000
----------------------------------------
   Max  559.045443
   Res  129.795287    sqrt( Sum f_i^2 / 3N )
----------------------------------------
   Max  559.045443    constrained

Stress-tensor-Voigt (kbar):     -767.49    -2450.54       -0.67       -9.36        0.00        0.00
(Free)E + p*V (eV/cell)    -7934.2529
Target enthalpy (eV/cell)    -9202.0416

siesta: Stress tensor (static) (eV/Ang**3):
        -0.479021   -0.005842    0.000000
        -0.005842   -1.529493    0.000000
         0.000000    0.000000   -0.000419

siesta: Pressure (static):       1072.90020793  kBar

siesta: Stress tensor (total) (eV/Ang**3):
        -0.479021   -0.005842    0.000000
        -0.005842   -1.529493    0.000000
         0.000000    0.000000   -0.000419

siesta: Pressure (total):       1072.90020793  kBar

siesta: Temp_ion =       0.000 K

* Maximum dynamic memory allocated =   240 MB
Computing bands...

siesta: Program's energy decomposition (eV):
siesta: Ebs     =     -4070.593111
siesta: Eions   =     15585.763425
siesta: Ena     =      4165.540035
siesta: Ekin    =      8006.742172
siesta: Enl     =      -776.367616
siesta: DEna    =      -752.603964
siesta: DUscf   =       101.977891
siesta: DUext   =         0.000000
siesta: Exc     =     -4361.509717
siesta: eta*DQ  =         0.000000
siesta: Emadel  =         0.000000
siesta: Emeta   =         0.000000
siesta: Emolmec =         0.000000
siesta: Ekinion =         0.000000
siesta: Eharris =     -9201.983374
siesta: Etot    =     -9201.984623
siesta: FreeEng =     -9202.041649

siesta: Final energy (eV):
siesta:  Band Struct. =   -4070.593111
siesta:       Kinetic =    8006.742172
siesta:       Hartree =   25838.382594
siesta:    Ext. field =       0.000000
siesta:   Exch.-corr. =   -4361.509717
siesta:  Ion-electron =  -59365.997313
siesta:       Ion-ion =   20680.397641
siesta:       Ekinion =       0.000000
siesta:         Total =   -9201.984623

siesta: Atomic forces (eV/Ang):
siesta:      1   19.917420   -3.013746    0.000000
siesta:      2   23.574227 -401.009635    0.000000
siesta:      3    2.650015    2.832037    0.000000
siesta:      4    0.461383 -105.337540    0.000000
siesta:      5   14.178811  402.210651    0.000000
siesta:      6   15.407093   -0.476250    0.000000
siesta:      7    2.386211   -2.936279    0.000000
siesta:      8    0.263608    0.876015    0.000000
siesta:      9    2.257077   -3.015350    0.000000
siesta:     10    3.144281    1.735772    0.000000
siesta:     11  -24.469480  401.883988    0.000000
siesta:     12  -16.296746  402.224417    0.000000
siesta:     13   -0.143803  414.907336    0.000000
siesta:     14   -3.546682    1.360440    0.000000
siesta:     15   -4.767940   -1.006400    0.000000
siesta:     16    7.327485   -3.237584    0.000000
siesta:     17   -6.122254    3.136462    0.000000
siesta:     18   -4.824509    2.164276    0.000000
siesta:     19    5.088772   -2.520090    0.000000
siesta:     20    0.715644 -408.740434    0.000000
siesta:     21   19.407314   -1.459493    0.000000
siesta:     22   22.688252 -402.679583    0.000000
siesta:     23   -2.907445  405.430124    0.000000
siesta:     24    5.223787 -125.203531    0.000000
siesta:     25    1.684988  122.240680    0.000000
siesta:     26  -15.135779 -401.853629    0.000000
siesta:     27    7.128181  114.966611    0.000000
siesta:     28   19.450291 -408.323423    0.000000
siesta:     29   -0.914711    3.419510    0.000000
siesta:     30    6.790476    5.231571    0.000000
siesta:     31    2.357916   -4.747145    0.000000
siesta:     32  -25.630115   -0.913757    0.000000
siesta:     33  -35.729156 -405.496036    0.000000
siesta:     34   15.717123  406.417144    0.000000
siesta:     35    2.680954 -120.647177    0.000000
siesta:     36   34.990280  410.109043    0.000000
siesta:     37   22.825732    3.843883    0.000000
siesta:     38   -2.579093   -1.636187    0.000000
siesta:     39    6.494984   -2.203114    0.000000
siesta:     40   -1.635692    0.019135    0.000000
siesta:     41    6.420071   -4.047190    0.000000
siesta:     42    0.111279    6.392526    0.000000
siesta:     43    0.593492   -6.786919    0.000000
siesta:     44  -21.617226  550.653225    0.000000
siesta:     45   -5.992751 -115.710987    0.000000
siesta:     46   -5.309295  540.546570    0.000000
siesta:     47  -24.081094    2.798384    0.000000
siesta:     48  -22.940194   -1.070827    0.000000
siesta:     49   -2.555579   -1.725499    0.000000
siesta:     50   -0.438559    2.021429    0.000000
siesta:     51    2.798829   -2.588458    0.000000
siesta:     52   -2.917625   -0.103229    0.000000
siesta:     53    2.339544   -2.834247    0.000000
siesta:     54    1.016515   -1.037516    0.000000
siesta:     55   -2.168341   -1.123144    0.000000
siesta:     56   -2.567808    2.173199    0.000000
siesta:     57   -0.257713   -0.745736    0.000000
siesta:     58    0.040726    5.946226    0.000000
siesta:     59    0.174358   -6.042913    0.000000
siesta:     60   -2.515024    1.802955    0.000000
siesta:     61    1.265504    0.426709    0.000000
siesta:     62   -2.695049    1.101144    0.000000
siesta:     63   -2.301933    2.019225    0.000000
siesta:     64    0.879295   -1.855546    0.000000
siesta:     65  -22.529701    3.347255    0.000000
siesta:     66  -26.269501 -559.045443    0.000000
siesta:     67   -2.932423    0.246252    0.000000
siesta:     68    3.300718    2.298304    0.000000
siesta:     69    6.810590  119.488798    0.000000
siesta:     70    4.488105 -550.357829    0.000000
siesta:     71    2.061163  123.299940    0.000000
siesta:     72   -2.560593 -408.133509    0.000000
siesta: ----------------------------------------
siesta:    Tot   -0.241321   -0.094139    0.000000

siesta: Stress tensor (static) (eV/Ang**3):
siesta:    -0.479021   -0.005842    0.000000
siesta:    -0.005842   -1.529493    0.000000
siesta:     0.000000    0.000000   -0.000419

siesta: Cell volume =       1893.226884 Ang**3

siesta: Pressure (static):
siesta:                Solid            Molecule  Units
siesta:           0.00729328          0.09851332  Ry/Bohr**3
siesta:           0.66964440          9.04515839  eV/Ang**3
siesta:        1072.90020793      14492.09807331  kBar
(Free)E+ p_basis*V_orbitals  =       -9164.353058
(Free)Eharris+ p_basis*V_orbitals  =       -9164.349441

siesta: Electric dipole (a.u.)  =    0.000000    0.000000    0.000000
siesta: Electric dipole (Debye) =    0.000000    0.000000    0.000000

* Maximum dynamic memory allocated : Node    0 =   240 MB
* Maximum dynamic memory allocated : Node    1 =    84 MB
* Maximum dynamic memory allocated : Node    2 =    87 MB
* Maximum dynamic memory allocated : Node    3 =   228 MB
* Maximum dynamic memory allocated : Node    4 =   232 MB
* Maximum dynamic memory allocated : Node    5 =    83 MB
* Maximum dynamic memory allocated : Node    6 =    87 MB
* Maximum dynamic memory allocated : Node    7 =   213 MB

* Maximum memory occured during matrixMtoO                    

timer: CPU execution times:
timer:  Routine       Calls   Time/call    Tot.time        %
timer:  siesta            1  128574.835  128574.835   100.00
timer:  Setup             1       3.835       3.835     0.00
timer:  bands             3     243.777     731.330     0.57
timer:  writewave         1       0.044       0.044     0.00
timer:  KSV_init          1       0.006       0.006     0.00
timer:  IterMD            1  127834.390  127834.390    99.42
timer:  hsparse           1       0.515       0.515     0.00
timer:  overlap           1       7.200       7.200     0.01
timer:  IterSCF          37    3449.328  127625.153    99.26
timer:  kinefsm           2       3.754       7.508     0.01
timer:  nlefsm            2      20.115      40.231     0.03
timer:  DHSCF            38     107.133    4071.056     3.17
timer:  DHSCF1            1       0.991       0.991     0.00
timer:  DHSCF2            1      42.169      42.169     0.03
timer:  REORD           306       0.005       1.514     0.00
timer:  POISON           39       0.876      34.183     0.03
timer:  DHSCF3           38     104.878    3985.370     3.10
timer:  rhoofd           38      24.478     930.181     0.72
timer:  cellXC           38       3.286     124.855     0.10
timer:  vmat             38      49.241    1871.140     1.46
timer:  MolMec            2       0.000       0.001     0.00
timer:  diagon           37    3341.120  123621.427    96.15
timer:  c-eigval       8668       6.032   52281.142    40.66
timer:  c-buildHS      8668       0.053     458.105     0.36
timer:  cdiag         17215       6.189  106539.621    82.86
timer:  cdiag1        17215       0.386    6641.293     5.17
timer:  cdiag2        17215       1.770   30472.015    23.70
timer:  cdiag3        17215       3.731   64223.251    49.95
timer:  cdiag4        17215       0.156    2691.304     2.09
timer:  c-eigvec       8547       6.446   55090.509    42.85
timer:  c-buildD       8547       1.982   16938.015    13.17
timer:  DHSCF4            1      41.760      41.760     0.03
timer:  dfscf             1      38.954      38.954     0.03
timer:  overfsm           1       0.455       0.455     0.00
timer:  optical           1       4.638       4.638     0.00
  

elaps: ELAPSED times:
elaps:  Routine       Calls   Time/call    Tot.time        %
elaps:  siesta            1   16102.204   16102.204   100.00
elaps:  Setup             1       0.499       0.499     0.00
elaps:  bands             3      30.549      91.646     0.57
elaps:  writewave         1       0.006       0.006     0.00
elaps:  KSV_init          1       0.001       0.001     0.00
elaps:  IterMD            1   16009.449   16009.449    99.42
elaps:  hsparse           1       0.065       0.065     0.00
elaps:  overlap           1       0.903       0.903     0.01
elaps:  IterSCF          37     431.983   15983.382    99.26
elaps:  kinefsm           2       0.471       0.942     0.01
elaps:  nlefsm            2       2.517       5.034     0.03
elaps:  DHSCF            38      13.546     514.731     3.20
elaps:  DHSCF1            1       0.126       0.126     0.00
elaps:  DHSCF2            1       5.279       5.279     0.03
elaps:  REORD           306       0.001       0.206     0.00
elaps:  POISON           39       0.110       4.304     0.03
elaps:  DHSCF3           38      13.135     499.122     3.10
elaps:  rhoofd           38       6.393     242.930     1.51
elaps:  cellXC           38       0.411      15.632     0.10
elaps:  vmat             38       6.167     234.341     1.46
elaps:  MolMec            2       0.000       0.000     0.00
elaps:  diagon           37     418.424   15481.677    96.15
elaps:  c-eigval       8668       0.755    6547.259    40.66
elaps:  c-buildHS      8668       0.007      63.592     0.39
elaps:  cdiag         17215       0.772   13282.748    82.49
elaps:  cdiag1        17215       0.048     833.940     5.18
elaps:  cdiag2        17215       0.222    3816.854    23.70
elaps:  cdiag3        17215       0.468    8053.576    50.02
elaps:  cdiag4        17215       0.019     329.932     2.05
elaps:  c-eigvec       8547       0.802    6853.984    42.57
elaps:  c-buildD       8547       0.253    2166.138    13.45
elaps:  DHSCF4            1      10.114      10.114     0.06
elaps:  dfscf             1       9.562       9.562     0.06
elaps:  overfsm           1       0.058       0.058     0.00
elaps:  optical           1       0.001       0.001     0.00
  
>> End of run:  25-APR-2016   4:34:34
