Siesta Version:                                        siesta-3.2-pl-3
Architecture  : x86_64-unknown-linux-gnu--unknown
Compiler flags: mpiifort -g -O2 -fPIC -xSSE4.1 -fp-model source -shared-intel 
PARALLEL version

* Running on    8 nodes in parallel
>> Start of run:   8-MAY-2016  21:54:30

                           ***********************       
                           *  WELCOME TO SIESTA  *       
                           ***********************       

reinit: Reading from standard input
************************** Dump of input data file ****************************
#(1) General system descriptors
SystemName            GRP_doping    # Descriptive name of the system
SystemLabel           GRP_doping    # Short name for naming files
%include STRUCT.fdf
%include KPT.fdf
%include BASIS.fdf
#%include TS.fdf # for transiesta calculation
#(4) DFT, Grid, SCF
XC.functional         GGA           # LDA or GGA (default = LDA)
XC.authors            PBE           # CA (Ceperley-Aldr) = PZ
                                    #    (Perdew-Zunger) - LDA - Default
                                    # PW92 (Perdew-Wang-92) - LDA
                                    # PBE (Perdew-Burke-Ernzerhof) - GGA
MeshCutoff            200.000000    Ry      # Default: 50.0 Ry ~ 0.444 Bohr
                                    #         100.0 Ry ~ 0.314 Bohr
MaxSCFIterations      500           # Default: 50
DM.MixingWeight       0.05          # Default: 0.25
DM.NumberPulay        10            # Default: 0
DM.PulayOnFile        F             # SystemLabel.P1, SystemLabel.P2
DM.Tolerance          1.d-4         # Default: 1.d-4
DM.UseSaveDM          .true.        # because of the bug
SCFMustConverge       .true.
NeglNonOverlapInt     F             # Default: F
#(5) Eigenvalue problem: order-N or diagonalization
SolutionMethod        Diagon        # or Transiesta
ElectronicTemperature 300.0 K       # Default: 300.0 K
#(6) Molecular dynamics and relaxations
#MD.TypeOfRun          CG            # Type of dynamics:
#MD.VariableCell       F
#MD.NumCGsteps         0           # 0 for single-point / 100 for gopt
#MD.MaxCGDispl         0.2 Bohr      # Default: 0.2 Bohr
#MD.MaxForceTol        0.02 eV/Ang   # Default: 0.04 eV/Ang
#MD.MaxStressTol       1.0 GPa       # Default: 1.0 GPa
# Geometry Constraints
#%block GeometryConstraints
#	position from 1 to 44
#%endblock GeometryConstraints
BandLinesScale   pi/a
%block BandLines
 1   0.00000000  0.00000000  0.00000000
50   0.00000000  0.07809418  0.00000000
50   0.04509075  0.07809242  0.00000000
20   0.00000000  0.00000000  0.00000000
%endblock BandLines
************************** End of input data file *****************************

reinit: -----------------------------------------------------------------------
reinit: System Name: GRP_doping
reinit: -----------------------------------------------------------------------
reinit: System Label: GRP_doping                                                  
reinit: -----------------------------------------------------------------------

initatom: Reading input for the pseudopotentials and atomic orbitals ----------
 Species number:            1  Label: B Atomic number:           5
 Species number:            2  Label: C Atomic number:           6
Ground state valence configuration:   2s02  2p01
Reading pseudopotential information in formatted form from B.psf

Valence configuration for pseudopotential generation:
2s( 2.00) rc: 1.74
2p( 1.00) rc: 1.74
3d( 0.00) rc: 1.74
4f( 0.00) rc: 1.74
Ground state valence configuration:   2s02  2p02
Reading pseudopotential information in formatted form from C.psf

Valence configuration for pseudopotential generation:
2s( 2.00) rc: 1.54
2p( 2.00) rc: 1.54
3d( 0.00) rc: 1.54
4f( 0.00) rc: 1.54
For B, standard SIESTA heuristics set lmxkb to 3
 (one more than the basis l, including polarization orbitals).
Use PS.lmax or PS.KBprojectors blocks to override.
For C, standard SIESTA heuristics set lmxkb to 3
 (one more than the basis l, including polarization orbitals).
Use PS.lmax or PS.KBprojectors blocks to override.

<basis_specs>
===============================================================================
B                    Z=   5    Mass=  10.810        Charge= 0.17977+309
Lmxo=1 Lmxkb= 3    BasisType=split      Semic=F
L=0  Nsemic=0  Cnfigmx=2
          n=1  nzeta=2  polorb=0
            splnorm:   0.15000    
               vcte:    0.0000    
               rinn:    0.0000    
                rcs:    0.0000      0.0000    
            lambdas:    1.0000      1.0000    
L=1  Nsemic=0  Cnfigmx=2
          n=1  nzeta=2  polorb=1
            splnorm:   0.15000    
               vcte:    0.0000    
               rinn:    0.0000    
                rcs:    0.0000      0.0000    
            lambdas:    1.0000      1.0000    
-------------------------------------------------------------------------------
L=0  Nkbl=1  erefs: 0.17977+309
L=1  Nkbl=1  erefs: 0.17977+309
L=2  Nkbl=1  erefs: 0.17977+309
L=3  Nkbl=1  erefs: 0.17977+309
===============================================================================
</basis_specs>

atom: Called for B                     (Z =   5)

read_vps: Pseudopotential generation method:
read_vps: ATM3      Troullier-Martins                       
Total valence charge:    3.00000

read_vps: Pseudopotential includes a core correction:
read_vps: Pseudo-core for xc-correction

xc_check: Exchange-correlation functional:
xc_check: GGA Perdew, Burke & Ernzerhof 1996
V l=0 = -2*Zval/r beyond r=  1.7165
V l=1 = -2*Zval/r beyond r=  1.7165
V l=2 = -2*Zval/r beyond r=  1.7165
V l=3 = -2*Zval/r beyond r=  1.6951
All V_l potentials equal beyond r=  1.7165
This should be close to max(r_c) in ps generation
All pots = -2*Zval/r beyond r=  1.7165

VLOCAL1: 99.0% of the norm of Vloc inside     14.733 Ry
VLOCAL1: 99.9% of the norm of Vloc inside     33.577 Ry
atom: Maximum radius for 4*pi*r*r*local-pseudopot. charge    2.04484
atom: Maximum radius for r*vlocal+2*Zval:    1.75994
GHOST: No ghost state for L =  0
GHOST: No ghost state for L =  1
GHOST: No ghost state for L =  2
GHOST: No ghost state for L =  3

KBgen: Kleinman-Bylander projectors: 
   l= 0   rc=  1.897051   el= -0.693730   Ekb=  4.595746   kbcos=  0.286105
   l= 1   rc=  1.920920   el= -0.265236   Ekb= -2.350715   kbcos= -0.315747
   l= 2   rc=  2.044840   el=  0.002055   Ekb= -0.690767   kbcos= -0.013822
   l= 3   rc=  2.149707   el=  0.003188   Ekb= -0.315358   kbcos= -0.002055

KBgen: Total number of  Kleinman-Bylander projectors:   16
atom: -------------------------------------------------------------------------

atom: SANKEY-TYPE ORBITALS:
atom: Selected multiple-zeta basis: split     

SPLIT: Orbitals with angular momentum L= 0

SPLIT: Basis orbitals for state 2s

SPLIT: PAO cut-off radius determined from an
SPLIT: energy shift=  0.007350 Ry

   izeta = 1
                 lambda =    1.000000
                     rc =    5.422032
                 energy =   -0.686029
                kinetic =    0.576707
    potential(screened) =   -1.262736
       potential(ionic) =   -3.271094

   izeta = 2
                 rmatch =    4.222573
              splitnorm =    0.150000
                 energy =   -0.602132
                kinetic =    0.858975
    potential(screened) =   -1.461107
       potential(ionic) =   -3.582536

SPLIT: Orbitals with angular momentum L= 1

SPLIT: Basis orbitals for state 2p

SPLIT: PAO cut-off radius determined from an
SPLIT: energy shift=  0.007350 Ry

   izeta = 1
                 lambda =    1.000000
                     rc =    6.790259
                 energy =   -0.258578
                kinetic =    1.481412
    potential(screened) =   -1.739989
       potential(ionic) =   -3.657461

   izeta = 2
                 rmatch =    4.608740
              splitnorm =    0.150000
                 energy =   -0.173757
                kinetic =    2.186690
    potential(screened) =   -2.360447
       potential(ionic) =   -4.464260

POLgen: Perturbative polarization orbital with L=  2

POLgen: Polarization orbital for state 2p

   izeta = 1
                     rc =    6.790259
                 energy =    0.684082
                kinetic =    1.471481
    potential(screened) =   -0.787399
       potential(ionic) =   -2.406985
atom: Total number of Sankey-type orbitals: 13

atm_pop: Valence configuration (for local Pseudopot. screening):
 2s( 2.00)                                                            
 2p( 1.00)                                                            
Vna: chval, zval:    3.00000   3.00000

Vna:  Cut-off radius for the neutral-atom potential:   6.790259
comcore: Pseudo-core radius Rcore=  2.122997

atom: _________________________________________________________________________

<basis_specs>
===============================================================================
C                    Z=   6    Mass=  12.010        Charge= 0.17977+309
Lmxo=1 Lmxkb= 3    BasisType=split      Semic=F
L=0  Nsemic=0  Cnfigmx=2
          n=1  nzeta=2  polorb=0
            splnorm:   0.15000    
               vcte:    0.0000    
               rinn:    0.0000    
                rcs:    0.0000      0.0000    
            lambdas:    1.0000      1.0000    
L=1  Nsemic=0  Cnfigmx=2
          n=1  nzeta=2  polorb=1
            splnorm:   0.15000    
               vcte:    0.0000    
               rinn:    0.0000    
                rcs:    0.0000      0.0000    
            lambdas:    1.0000      1.0000    
-------------------------------------------------------------------------------
L=0  Nkbl=1  erefs: 0.17977+309
L=1  Nkbl=1  erefs: 0.17977+309
L=2  Nkbl=1  erefs: 0.17977+309
L=3  Nkbl=1  erefs: 0.17977+309
===============================================================================
</basis_specs>

atom: Called for C                     (Z =   6)

read_vps: Pseudopotential generation method:
read_vps: ATM3      Troullier-Martins                       
Total valence charge:    4.00000

read_vps: Pseudopotential includes a core correction:
read_vps: Pseudo-core for xc-correction

xc_check: Exchange-correlation functional:
xc_check: GGA Perdew, Burke & Ernzerhof 1996
V l=0 = -2*Zval/r beyond r=  1.5227
V l=1 = -2*Zval/r beyond r=  1.5227
V l=2 = -2*Zval/r beyond r=  1.5227
V l=3 = -2*Zval/r beyond r=  1.5038
All V_l potentials equal beyond r=  1.5227
This should be close to max(r_c) in ps generation
All pots = -2*Zval/r beyond r=  1.5227

VLOCAL1: 99.0% of the norm of Vloc inside     18.722 Ry
VLOCAL1: 99.9% of the norm of Vloc inside     42.668 Ry
atom: Maximum radius for 4*pi*r*r*local-pseudopot. charge    1.83678
atom: Maximum radius for r*vlocal+2*Zval:    1.58088
GHOST: No ghost state for L =  0
GHOST: No ghost state for L =  1
GHOST: No ghost state for L =  2
GHOST: No ghost state for L =  3

KBgen: Kleinman-Bylander projectors: 
   l= 0   rc=  1.704034   el= -1.009801   Ekb=  5.335044   kbcos=  0.316824
   l= 1   rc=  1.704034   el= -0.388707   Ekb= -3.785862   kbcos= -0.366464
   l= 2   rc=  1.791422   el=  0.001971   Ekb= -0.970471   kbcos= -0.009212
   l= 3   rc=  1.859892   el=  0.003065   Ekb= -0.399525   kbcos= -0.001223

KBgen: Total number of  Kleinman-Bylander projectors:   16
atom: -------------------------------------------------------------------------

atom: SANKEY-TYPE ORBITALS:
atom: Selected multiple-zeta basis: split     

SPLIT: Orbitals with angular momentum L= 0

SPLIT: Basis orbitals for state 2s

SPLIT: PAO cut-off radius determined from an
SPLIT: energy shift=  0.007350 Ry

   izeta = 1
                 lambda =    1.000000
                     rc =    4.632753
                 energy =   -1.002270
                kinetic =    0.855760
    potential(screened) =   -1.858031
       potential(ionic) =   -5.417575

   izeta = 2
                 rmatch =    3.431921
              splitnorm =    0.150000
                 energy =   -0.867111
                kinetic =    1.300804
    potential(screened) =   -2.167915
       potential(ionic) =   -5.962684

SPLIT: Orbitals with angular momentum L= 1

SPLIT: Basis orbitals for state 2p

SPLIT: PAO cut-off radius determined from an
SPLIT: energy shift=  0.007350 Ry

   izeta = 1
                 lambda =    1.000000
                     rc =    5.658549
                 energy =   -0.381140
                kinetic =    2.399701
    potential(screened) =   -2.780841
       potential(ionic) =   -6.206085

   izeta = 2
                 rmatch =    3.653288
              splitnorm =    0.150000
                 energy =   -0.249149
                kinetic =    3.542762
    potential(screened) =   -3.791911
       potential(ionic) =   -7.581078

POLgen: Perturbative polarization orbital with L=  2

POLgen: Polarization orbital for state 2p

   izeta = 1
                     rc =    5.658549
                 energy =    1.109913
                kinetic =    2.304789
    potential(screened) =   -1.194876
       potential(ionic) =   -4.013592
atom: Total number of Sankey-type orbitals: 13

atm_pop: Valence configuration (for local Pseudopot. screening):
 2s( 2.00)                                                            
 2p( 2.00)                                                            
Vna: chval, zval:    4.00000   4.00000

Vna:  Cut-off radius for the neutral-atom potential:   5.658549
comcore: Pseudo-core radius Rcore=  1.791422

atom: _________________________________________________________________________

prinput: Basis input ----------------------------------------------------------

PAO.BasisType split     

%block ChemicalSpeciesLabel
    1    5 B                       # Species index, atomic number, species label
    2    6 C                       # Species index, atomic number, species label
%endblock ChemicalSpeciesLabel

%block PAO.Basis                 # Define Basis set
B                     2                    # Species label, number of l-shells
 n=2   0   2                         # n, l, Nzeta 
   5.422      4.223   
   1.000      1.000   
 n=2   1   2 P   1                   # n, l, Nzeta, Polarization, NzetaPol
   6.790      4.609   
   1.000      1.000   
C                     2                    # Species label, number of l-shells
 n=2   0   2                         # n, l, Nzeta 
   4.633      3.432   
   1.000      1.000   
 n=2   1   2 P   1                   # n, l, Nzeta, Polarization, NzetaPol
   5.659      3.653   
   1.000      1.000   
%endblock PAO.Basis

prinput: ----------------------------------------------------------------------

coor:   Atomic-coordinates input format  =     Fractional

siesta: Atomic coordinates (Bohr) and species
siesta:      6.95932  17.38257   0.00000  1        1
siesta:      9.28770  18.72698   0.00000  1        2
siesta:      9.28770  21.41544   0.00000  1        3
siesta:      2.30256  17.38257   0.00000  1        4
siesta:      4.63094  18.72698   0.00000  1        5
siesta:      4.63094  21.41544   0.00000  1        6
siesta:      6.95932  22.75985   0.00000  1        7
siesta:      6.95932  25.44831   0.00000  1        8
siesta:      2.30256  25.44831   0.00000  1        9
siesta:     -2.35420  25.44831   0.00000  1       10
siesta:     -7.01096  25.44831   0.00000  1       11
siesta:      4.63094  26.79272   0.00000  1       12
siesta:     -0.02582  26.79272   0.00000  1       13
siesta:     -4.68258  26.79272   0.00000  1       14
siesta:     -0.02582   2.59549   0.00000  2       15
siesta:     -0.02582   5.28395   0.00000  2       16
siesta:     -2.35420  38.89134   0.00000  2       17
siesta:     -2.35420  41.57980   0.00000  2       18
siesta:      2.30256  38.89134   0.00000  2       19
siesta:      2.30256  41.57980   0.00000  2       20
siesta:      4.63094  34.85847   0.00000  2       21
siesta:      4.63094  37.54693   0.00000  2       22
siesta:      6.95932  30.82560   0.00000  2       23
siesta:      6.95932  33.51406   0.00000  2       24
siesta:      9.28770  26.79272   0.00000  2       25
siesta:      9.28770  29.48119   0.00000  2       26
siesta:     -4.68258  34.85847   0.00000  2       27
siesta:     -4.68258  37.54693   0.00000  2       28
siesta:      2.30256   6.62836   0.00000  2       29
siesta:      2.30256   9.31683   0.00000  2       30
siesta:      4.63094  10.66124   0.00000  2       31
siesta:      4.63094  13.34970   0.00000  2       32
siesta:      6.95932  14.69411   0.00000  2       33
siesta:     11.61608  22.75985   0.00000  2       34
siesta:     11.61608  25.44831   0.00000  2       35
siesta:     -2.35420   6.62836   0.00000  2       36
siesta:     -2.35420   9.31683   0.00000  2       37
siesta:     -0.02582  10.66124   0.00000  2       38
siesta:     -0.02582  13.34970   0.00000  2       39
siesta:      2.30256  14.69411   0.00000  2       40
siesta:     -4.68258  10.66124   0.00000  2       41
siesta:     -4.68258  13.34970   0.00000  2       42
siesta:     -2.35420  14.69411   0.00000  2       43
siesta:     -2.35420  17.38257   0.00000  2       44
siesta:     -0.02582  18.72698   0.00000  2       45
siesta:     -0.02582  21.41544   0.00000  2       46
siesta:      2.30256  22.75985   0.00000  2       47
siesta:     -7.01096  14.69411   0.00000  2       48
siesta:     -7.01096  17.38257   0.00000  2       49
siesta:     -4.68258  18.72698   0.00000  2       50
siesta:     -4.68258  21.41544   0.00000  2       51
siesta:     -2.35420  22.75985   0.00000  2       52
siesta:     -9.33934  18.72698   0.00000  2       53
siesta:     -9.33934  21.41544   0.00000  2       54
siesta:     -7.01096  22.75985   0.00000  2       55
siesta:    -11.66772  22.75985   0.00000  2       56
siesta:    -11.66772  25.44831   0.00000  2       57
siesta:     -9.33934  26.79272   0.00000  2       58
siesta:     -9.33934  29.48119   0.00000  2       59
siesta:      4.63094  29.48119   0.00000  2       60
siesta:     -0.02582  29.48119   0.00000  2       61
siesta:     -4.68258  29.48119   0.00000  2       62
siesta:      2.30256  30.82560   0.00000  2       63
siesta:      2.30256  33.51406   0.00000  2       64
siesta:     -2.35420  30.82560   0.00000  2       65
siesta:     -2.35420  33.51406   0.00000  2       66
siesta:     -7.01096  30.82560   0.00000  2       67
siesta:     -7.01096  33.51406   0.00000  2       68
siesta:     -0.02582  34.85847   0.00000  2       69
siesta:     -0.02582  37.54693   0.00000  2       70
siesta:     -0.02582  42.92421   0.00000  2       71
siesta:     -0.02582  45.61267   0.00000  2       72

siesta: System type = slab      

initatomlists: Number of atoms, orbitals, and projectors:     72   936  1152

siesta: ******************** Simulation parameters ****************************
siesta:
siesta: The following are some of the parameters of the simulation.
siesta: A complete list of the parameters used, including default values,
siesta: can be found in file out.fdf
siesta:
redata: Non-Collinear-spin run           =     F
redata: SpinPolarized (Up/Down) run      =     F
redata: Number of spin components        =     1
redata: Long output                      =     F
redata: Number of Atomic Species         =        2
redata: Charge density info will appear in .RHO file
redata: Write Mulliken Pop.              =     NO
redata: Mesh Cutoff                      =   200.0000  Ry
redata: Net charge of the system         =     0.0000 |e|
redata: Max. number of SCF Iter          =      500
redata: SCF convergence failure will abort job
redata: Performing Pulay mixing using    =    10 iterations
redata: Mix DM in first SCF step ?       =     F
redata: Write Pulay info on disk?        =     F
redata: Discard 1st Pulay DM after  kick =     F
redata: New DM Mixing Weight             =     0.0500
redata: New DM Occupancy tolerance       = 0.000000000001
redata: No kicks to SCF
redata: DM Mixing Weight for Kicks       =     0.5000
redata: DM Tolerance for SCF             =     0.000100
redata: Require Energy convergence for SCF =     F
redata: DM Energy tolerance for SCF      =     0.000100 eV
redata: Require Harris convergence for SCF =     F
redata: DM Harris energy tolerance for SCF =     0.000100 eV
redata: Using Saved Data (generic)   =     F
redata: Use continuation files for DM    =     T
redata: Neglect nonoverlap interactions  =     F
redata: Method of Calculation            =     Diagonalization
redata: Divide and Conquer               =     T
redata: Electronic Temperature           =     0.0019  Ry
redata: Fix the spin of the system       =     F
redata: Dynamics option                  =     Verlet MD run
redata: Initial MD time step             =        1
redata:   Final MD time step             =        1
redata: Length of MD time step           =     1.0000  fs
redata: Initial Temperature of MD run    =     0.0000  K
redata: Perform a MD quench              =     F
redata: ***********************************************************************
Total number of electrons:   274.000000
Total ionic charge:   274.000000

* ProcessorY, Blocksize:    2  24

k-point displ. along   1 input, could be:     0.00    0.50
k-point displ. along   2 input, could be:     0.00    0.50
 Kpoints in:          364 . Kpoints trimmed:          352

siesta: k-grid: Number of k-points =   352
siesta: k-grid: Cutoff (effective) =     5.000 Ang
siesta: k-grid: Supercell and displacements
siesta: k-grid:   26   0   0      0.000
siesta: k-grid:    0  26   0      0.000
siesta: k-grid:    0   0   1      0.000
Naive supercell factors:     2    2    2

superc: Internal auxiliary supercell:     2 x     2 x     2  =       8
superc: Number of atoms, orbitals, and projectors:    576   7488   9216

* Maximum dynamic memory allocated =     6 MB

siesta:                 ==============================
                            Begin MD step =      1
                        ==============================

superc: Internal auxiliary supercell:     2 x     2 x     2  =       8
superc: Number of atoms, orbitals, and projectors:    576   7488   9216

outcell: Unit cell vectors (Ang):
       12.804619    7.392750    0.000000
        0.000000   14.785500    0.000000
        0.000000    0.000000   10.000000

outcell: Cell vector modules (Ang)   :   14.785500   14.785500   10.000000
outcell: Cell angles (23,13,12) (deg):     90.0000     90.0000     60.0000
outcell: Cell volume (Ang**3)        :   1893.2269
New_DM. Step:     1
Initializing Density Matrix...

InitMesh: MESH =   120 x   120 x    90 =     1296000
InitMesh: Mesh cutoff (required, used) =   200.000   223.865 Ry

* Maximum dynamic memory allocated =   216 MB

stepf: Fermi-Dirac step function

siesta: Program's energy decomposition (eV):
siesta: Ebs     =     -5669.622054
siesta: Eions   =     16610.217114
siesta: Ena     =      4395.007939
siesta: Ekin    =      5639.844840
siesta: Enl     =       749.450321
siesta: DEna    =        -0.000010
siesta: DUscf   =         0.000000
siesta: DUext   =         0.000000
siesta: Exc     =     -4199.086622
siesta: eta*DQ  =         0.000000
siesta: Emadel  =         0.000000
siesta: Emeta   =         0.000000
siesta: Emolmec =         0.000000
siesta: Ekinion =         0.000000
siesta: Eharris =     -9704.236623
siesta: Etot    =    -10025.000646
siesta: FreeEng =    -10025.000646

siesta: iscf   Eharris(eV)      E_KS(eV)   FreeEng(eV)   dDmax  Ef(eV)
siesta:    1    -9704.2366   -10025.0006   -10025.0006  6.3964 -8.2343
timer: Routine,Calls,Time,% = IterSCF        1    6707.776  99.82
elaps: Routine,Calls,Wall,% = IterSCF        1     839.484  99.82
siesta:    2   -13166.5509    -9081.4142    -9081.4334 19.1306 -1.6044
siesta:    3    -9629.8598    -9879.0713    -9879.0990  3.6563 -6.7248
siesta:    4    -9608.2469    -9717.9174    -9717.9329  1.4334 -5.5191
siesta:    5    -9576.2362    -9633.7416    -9633.7611  0.7861 -5.2721
siesta:    6    -9557.1655    -9608.9182    -9608.9250  0.6938 -5.1161
siesta:    7    -9553.0470    -9600.4050    -9600.4353  0.6467 -5.1821
siesta:    8    -9551.2879    -9588.5531    -9588.6334  0.5801 -5.1499
siesta:    9    -9550.3107    -9582.0333    -9582.1057  0.5301 -5.1508
siesta:   10    -9551.2012    -9557.4463    -9557.5171  0.3977 -5.0416
siesta:   11    -9549.4837    -9551.4516    -9551.5208  0.2779 -5.0559
siesta:   12    -9549.4839    -9536.5314    -9536.5926  0.1997 -4.9837
siesta:   13    -9549.1145    -9528.5714    -9528.6411  0.1785 -4.9413
siesta:   14    -9548.7951    -9528.7844    -9528.8640  0.1324 -4.9483
siesta:   15    -9548.4271    -9530.0098    -9530.0892  0.1078 -4.9654
siesta:   16    -9548.1114    -9533.3158    -9533.3861  0.1039 -4.9904
siesta:   17    -9548.0437    -9535.4967    -9535.5765  0.0776 -4.9991
siesta:   18    -9548.0100    -9537.5823    -9537.6615  0.0554 -5.0075
siesta:   19    -9547.9937    -9539.5716    -9539.6502  0.0407 -5.0144
siesta:   20    -9547.9913    -9541.8458    -9541.9266  0.0280 -5.0221
siesta:   21    -9547.9816    -9543.8333    -9543.9142  0.0226 -5.0274
siesta:   22    -9547.9788    -9545.2736    -9545.3564  0.0167 -5.0305
siesta:   23    -9547.9768    -9545.7831    -9545.8654  0.0144 -5.0298
siesta:   24    -9547.9760    -9547.1195    -9547.2025  0.0090 -5.0285
siesta:   25    -9547.9753    -9547.6168    -9547.7003  0.0062 -5.0260
siesta:   26    -9547.9752    -9547.9090    -9547.9931  0.0041 -5.0230
siesta:   27    -9547.9753    -9548.0435    -9548.1273  0.0032 -5.0224
siesta:   28    -9547.9752    -9548.0989    -9548.1825  0.0023 -5.0221
siesta:   29    -9547.9751    -9548.1160    -9548.1996  0.0015 -5.0223
siesta:   30    -9547.9751    -9548.0908    -9548.1744  0.0012 -5.0223
siesta:   31    -9547.9752    -9548.0787    -9548.1623  0.0008 -5.0227
siesta:   32    -9547.9752    -9548.0523    -9548.1358  0.0005 -5.0227
siesta:   33    -9547.9752    -9548.0213    -9548.1048  0.0004 -5.0226
siesta:   34    -9547.9752    -9547.9922    -9548.0757  0.0003 -5.0226
siesta:   35    -9547.9752    -9547.9798    -9548.0633  0.0002 -5.0226
siesta:   36    -9547.9752    -9547.9672    -9548.0507  0.0002 -5.0225
siesta:   37    -9547.9752    -9547.9632    -9548.0467  0.0001 -5.0225
siesta:   38    -9547.9752    -9547.9666    -9548.0501  0.0001 -5.0225
siesta:   39    -9547.9752    -9547.9699    -9548.0534  0.0001 -5.0225

siesta: E_KS(eV) =            -9547.9735

siesta: E_KS - E_eggbox =     -9547.9735

siesta: Atomic forces (eV/Ang):
----------------------------------------
   Tot   -0.134197   -0.051562    0.000000
----------------------------------------
   Max  563.131321
   Res  161.282479    sqrt( Sum f_i^2 / 3N )
----------------------------------------
   Max  563.131321    constrained

Stress-tensor-Voigt (kbar):     -803.02    -2927.37       -0.57       -0.46        0.00        0.00
(Free)E + p*V (eV/cell)    -8078.4984
Target enthalpy (eV/cell)    -9548.0570

siesta: Stress tensor (static) (eV/Ang**3):
        -0.501203   -0.000285    0.000000
        -0.000285   -1.827101    0.000000
         0.000000    0.000000   -0.000353

siesta: Pressure (static):       1243.65328636  kBar

siesta: Stress tensor (total) (eV/Ang**3):
        -0.501203   -0.000285    0.000000
        -0.000285   -1.827101    0.000000
         0.000000    0.000000   -0.000353

siesta: Pressure (total):       1243.65328636  kBar

siesta: Temp_ion =       0.000 K

* Maximum dynamic memory allocated =   233 MB
Computing bands...

siesta: Program's energy decomposition (eV):
siesta: Ebs     =     -4324.270677
siesta: Eions   =     16610.217114
siesta: Ena     =      4395.007939
siesta: Ekin    =      8613.439743
siesta: Enl     =      -866.741782
siesta: DEna    =      -813.000314
siesta: DUscf   =       107.480639
siesta: DUext   =         0.000000
siesta: Exc     =     -4373.942603
siesta: eta*DQ  =         0.000000
siesta: Emadel  =         0.000000
siesta: Emeta   =         0.000000
siesta: Emolmec =         0.000000
siesta: Ekinion =         0.000000
siesta: Eharris =     -9547.975169
siesta: Etot    =     -9547.973491
siesta: FreeEng =     -9548.056997

siesta: Final energy (eV):
siesta:  Band Struct. =   -4324.270677
siesta:       Kinetic =    8613.439743
siesta:       Hartree =   28614.244615
siesta:    Ext. field =       0.000000
siesta:   Exch.-corr. =   -4373.942603
siesta:  Ion-electron =  -65558.262341
siesta:       Ion-ion =   23156.547096
siesta:       Ekinion =       0.000000
siesta:         Total =   -9547.973491

siesta: Atomic forces (eV/Ang):
siesta:      1    3.116126   -6.202879    0.000000
siesta:      2    4.000349   -2.140431    0.000000
siesta:      3    8.836025    2.078730    0.000000
siesta:      4   15.830359   -4.230726    0.000000
siesta:      5   -1.041605   -2.477544    0.000000
siesta:      6   -4.602214    3.067825    0.000000
siesta:      7   -0.139184   -1.695854    0.000000
siesta:      8    2.507079    2.130421    0.000000
siesta:      9   -0.423414   -5.524921    0.000000
siesta:     10    0.770281   -5.589565    0.000000
siesta:     11   -2.467870   -3.449629    0.000000
siesta:     12   -1.279603    5.468762    0.000000
siesta:     13   -0.571234    5.803280    0.000000
siesta:     14    0.929931    5.943525    0.000000
siesta:     15   -0.191034  551.996315    0.000000
siesta:     16    0.237103 -128.954964    0.000000
siesta:     17    1.446171  126.516938    0.000000
siesta:     18  -12.805747 -547.153083    0.000000
siesta:     19   -2.110746  126.823003    0.000000
siesta:     20   17.489427 -552.889420    0.000000
siesta:     21   26.716539    5.815664    0.000000
siesta:     22   33.589024 -549.446038    0.000000
siesta:     23    1.380019    1.511993    0.000000
siesta:     24   -2.297833    1.264936    0.000000
siesta:     25    5.852358    3.503555    0.000000
siesta:     26   -0.836040   -0.813136    0.000000
siesta:     27  -26.697004    5.480513    0.000000
siesta:     28  -33.037256 -548.953456    0.000000
siesta:     29   14.640158  547.488765    0.000000
siesta:     30   -1.913306 -126.598609    0.000000
siesta:     31   32.610341  549.169758    0.000000
siesta:     32   26.680069   -5.573808    0.000000
siesta:     33   -3.979112   -4.606389    0.000000
siesta:     34    1.947000    6.927235    0.000000
siesta:     35    0.771406   -5.724386    0.000000
siesta:     36  -15.076128  547.343482    0.000000
siesta:     37    1.902865 -126.916970    0.000000
siesta:     38    0.709214  543.594816    0.000000
siesta:     39    0.963212 -125.633630    0.000000
siesta:     40   22.222792  557.337484    0.000000
siesta:     41  -33.186674  548.970636    0.000000
siesta:     42  -27.070581   -5.105210    0.000000
siesta:     43  -26.341753  556.730999    0.000000
siesta:     44  -22.137356   -6.162071    0.000000
siesta:     45    3.736767  559.068547    0.000000
siesta:     46   -0.205008    1.394065    0.000000
siesta:     47   -3.803821   -3.200409    0.000000
siesta:     48    2.482536   -1.877788    0.000000
siesta:     49   -1.720151   -0.174262    0.000000
siesta:     50    1.111638    2.158212    0.000000
siesta:     51   -0.470877   -0.884747    0.000000
siesta:     52    0.415342   -3.611700    0.000000
siesta:     53    1.155556   -0.587005    0.000000
siesta:     54   -2.571886   -1.831470    0.000000
siesta:     55    0.135476   -2.951938    0.000000
siesta:     56   -0.021684    5.841135    0.000000
siesta:     57    0.502639   -6.390253    0.000000
siesta:     58   -5.817827    4.647214    0.000000
siesta:     59    1.190926    0.115536    0.000000
siesta:     60   -0.619448    2.002427    0.000000
siesta:     61    0.300304 -563.131321    0.000000
siesta:     62    1.568520    1.736020    0.000000
siesta:     63   21.908875    6.080198    0.000000
siesta:     64   23.475903 -556.975984    0.000000
siesta:     65  -22.312612    5.822915    0.000000
siesta:     66  -23.896332 -556.896113    0.000000
siesta:     67   -2.404289    1.058428    0.000000
siesta:     68    2.360493    1.626907    0.000000
siesta:     69   -0.014816  126.076401    0.000000
siesta:     70   -0.342890 -543.300180    0.000000
siesta:     71    2.657278  131.675907    0.000000
siesta:     72   -5.876961 -546.668220    0.000000
siesta: ----------------------------------------
siesta:    Tot   -0.134197   -0.051562    0.000000

siesta: Stress tensor (static) (eV/Ang**3):
siesta:    -0.501203   -0.000285    0.000000
siesta:    -0.000285   -1.827101    0.000000
siesta:     0.000000    0.000000   -0.000353

siesta: Cell volume =       1893.226884 Ang**3

siesta: Pressure (static):
siesta:                Solid            Molecule  Units
siesta:           0.00845402          0.12573117  Ry/Bohr**3
siesta:           0.77621894         11.54420864  eV/Ang**3
siesta:        1243.65328636      18496.06126028  kBar
(Free)E+ p_basis*V_orbitals  =       -9512.896031
(Free)Eharris+ p_basis*V_orbitals  =       -9512.901335

siesta: Electric dipole (a.u.)  =    0.000000    0.000000    0.000000
siesta: Electric dipole (Debye) =    0.000000    0.000000    0.000000

* Maximum dynamic memory allocated : Node    0 =   233 MB
* Maximum dynamic memory allocated : Node    1 =    82 MB
* Maximum dynamic memory allocated : Node    2 =    83 MB
* Maximum dynamic memory allocated : Node    3 =   220 MB
* Maximum dynamic memory allocated : Node    4 =   224 MB
* Maximum dynamic memory allocated : Node    5 =    82 MB
* Maximum dynamic memory allocated : Node    6 =    86 MB
* Maximum dynamic memory allocated : Node    7 =   207 MB

* Maximum memory occured during matrixMtoO                    

timer: CPU execution times:
timer:  Routine       Calls   Time/call    Tot.time        %
timer:  siesta            1  258487.052  258487.052   100.00
timer:  Setup             1       3.123       3.123     0.00
timer:  bands             3     269.057     807.172     0.31
timer:  writewave         1       0.018       0.018     0.00
timer:  KSV_init          1       0.000       0.000     0.00
timer:  IterMD            1  257668.137  257668.137    99.68
timer:  hsparse           1       0.394       0.394     0.00
timer:  overlap           1       7.775       7.775     0.00
timer:  IterSCF          39    6601.483  257457.838    99.60
timer:  kinefsm           2       4.053       8.107     0.00
timer:  nlefsm            2      20.670      41.340     0.02
timer:  DHSCF            40     111.445    4457.805     1.72
timer:  DHSCF1            1       0.995       0.995     0.00
timer:  DHSCF2            1      43.359      43.359     0.02
timer:  REORD           322       0.010       3.187     0.00
timer:  POISON           41       2.263      92.772     0.04
timer:  DHSCF3           40     109.278    4371.103     1.69
timer:  rhoofd           40      23.554     942.142     0.36
timer:  cellXC           40       3.488     139.528     0.05
timer:  vmat             40      53.484    2139.379     0.83
timer:  MolMec            2       0.000       0.000     0.00
timer:  diagon           39    6488.747  253061.134    97.90
timer:  c-eigval      13849       6.668   92348.591    35.73
timer:  c-buildHS     13849       0.122    1693.565     0.66
timer:  cdiag         27577       6.894  190124.567    73.55
timer:  cdiag1        27577       0.428   11805.289     4.57
timer:  cdiag2        27577       1.906   52550.844    20.33
timer:  cdiag3        27577       3.935  108525.510    41.98
timer:  cdiag4        27577       0.225    6194.895     2.40
timer:  c-eigvec      13728       7.316  100433.107    38.85
timer:  c-buildD      13728       4.441   60969.514    23.59
timer:  DHSCF4            1      40.219      40.219     0.02
timer:  dfscf             1      37.615      37.615     0.01
timer:  overfsm           1       0.465       0.465     0.00
timer:  optical           1       7.527       7.527     0.00
  

elaps: ELAPSED times:
elaps:  Routine       Calls   Time/call    Tot.time        %
elaps:  siesta            1   32348.183   32348.183   100.00
elaps:  Setup             1       0.389       0.389     0.00
elaps:  bands             3      33.683     101.050     0.31
elaps:  writewave         1       0.002       0.002     0.00
elaps:  KSV_init          1       0.000       0.000     0.00
elaps:  IterMD            1   32245.723   32245.723    99.68
elaps:  hsparse           1       0.049       0.049     0.00
elaps:  overlap           1       0.988       0.988     0.00
elaps:  IterSCF          39     826.139   32219.415    99.60
elaps:  kinefsm           2       0.543       1.086     0.00
elaps:  nlefsm            2       2.735       5.470     0.02
elaps:  DHSCF            40      14.064     562.553     1.74
elaps:  DHSCF1            1       0.129       0.129     0.00
elaps:  DHSCF2            1       5.421       5.421     0.02
elaps:  REORD           322       0.001       0.439     0.00
elaps:  POISON           41       0.283      11.606     0.04
elaps:  DHSCF3           40      13.671     546.859     1.69
elaps:  rhoofd           40       6.207     248.283     0.77
elaps:  cellXC           40       0.436      17.427     0.05
elaps:  vmat             40       6.691     267.633     0.83
elaps:  MolMec            2       0.000       0.000     0.00
elaps:  diagon           39     812.066   31670.559    97.91
elaps:  c-eigval      13849       0.834   11554.468    35.72
elaps:  c-buildHS     13849       0.017     232.947     0.72
elaps:  cdiag         27577       0.846   23330.186    72.12
elaps:  cdiag1        27577       0.053    1457.457     4.51
elaps:  cdiag2        27577       0.238    6575.490    20.33
elaps:  cdiag3        27577       0.493   13597.112    42.03
elaps:  cdiag4        27577       0.029     788.394     2.44
elaps:  c-eigvec      13728       0.886   12162.262    37.60
elaps:  c-buildD      13728       0.586    8038.389    24.85
elaps:  DHSCF4            1       9.858       9.858     0.03
elaps:  dfscf             1       9.347       9.347     0.03
elaps:  overfsm           1       0.062       0.062     0.00
elaps:  optical           1       0.000       0.000     0.00
  
>> End of run:   9-MAY-2016   6:53:38
