Siesta Version:                                        siesta-3.2-pl-3
Architecture  : x86_64-unknown-linux-gnu--unknown
Compiler flags: mpiifort -g -O2 -fPIC -xSSE4.1 -fp-model source -shared-intel 
PARALLEL version

* Running on    8 nodes in parallel
>> Start of run:  26-APR-2016  15:18:01

                           ***********************       
                           *  WELCOME TO SIESTA  *       
                           ***********************       

reinit: Reading from standard input
************************** Dump of input data file ****************************
#(1) General system descriptors
SystemName            GRP_doping    # Descriptive name of the system
SystemLabel           GRP_doping    # Short name for naming files
%include STRUCT.fdf
%include KPT.fdf
%include BASIS.fdf
#%include TS.fdf # for transiesta calculation
#(4) DFT, Grid, SCF
XC.functional         GGA           # LDA or GGA (default = LDA)
XC.authors            PBE           # CA (Ceperley-Aldr) = PZ
                                    #    (Perdew-Zunger) - LDA - Default
                                    # PW92 (Perdew-Wang-92) - LDA
                                    # PBE (Perdew-Burke-Ernzerhof) - GGA
MeshCutoff            200.000000    Ry      # Default: 50.0 Ry ~ 0.444 Bohr
                                    #         100.0 Ry ~ 0.314 Bohr
MaxSCFIterations      500           # Default: 50
DM.MixingWeight       0.05          # Default: 0.25
DM.NumberPulay        10            # Default: 0
DM.PulayOnFile        F             # SystemLabel.P1, SystemLabel.P2
DM.Tolerance          1.d-4         # Default: 1.d-4
DM.UseSaveDM          .true.        # because of the bug
SCFMustConverge       .true.
NeglNonOverlapInt     F             # Default: F
#(5) Eigenvalue problem: order-N or diagonalization
SolutionMethod        Diagon        # or Transiesta
ElectronicTemperature 300.0 K       # Default: 300.0 K
#(6) Molecular dynamics and relaxations
#MD.TypeOfRun          CG            # Type of dynamics:
#MD.VariableCell       F
#MD.NumCGsteps         0           # 0 for single-point / 100 for gopt
#MD.MaxCGDispl         0.2 Bohr      # Default: 0.2 Bohr
#MD.MaxForceTol        0.02 eV/Ang   # Default: 0.04 eV/Ang
#MD.MaxStressTol       1.0 GPa       # Default: 1.0 GPa
# Geometry Constraints
#%block GeometryConstraints
#	position from 1 to 44
#%endblock GeometryConstraints
BandLinesScale   pi/a
%block BandLines
 1   0.00000000  0.00000000  0.00000000
50   0.00000000  0.07809418  0.00000000
50   0.04509075  0.07809242  0.00000000
20   0.00000000  0.00000000  0.00000000
%endblock BandLines
************************** End of input data file *****************************

reinit: -----------------------------------------------------------------------
reinit: System Name: GRP_doping
reinit: -----------------------------------------------------------------------
reinit: System Label: GRP_doping                                                  
reinit: -----------------------------------------------------------------------

initatom: Reading input for the pseudopotentials and atomic orbitals ----------
 Species number:            1  Label: N Atomic number:           7
 Species number:            2  Label: C Atomic number:           6
Ground state valence configuration:   2s02  2p03
Reading pseudopotential information in formatted form from N.psf

Valence configuration for pseudopotential generation:
2s( 2.00) rc: 1.48
2p( 3.00) rc: 1.48
3d( 0.00) rc: 1.48
4f( 0.00) rc: 1.48
Ground state valence configuration:   2s02  2p02
Reading pseudopotential information in formatted form from C.psf

Valence configuration for pseudopotential generation:
2s( 2.00) rc: 1.54
2p( 2.00) rc: 1.54
3d( 0.00) rc: 1.54
4f( 0.00) rc: 1.54
For N, standard SIESTA heuristics set lmxkb to 3
 (one more than the basis l, including polarization orbitals).
Use PS.lmax or PS.KBprojectors blocks to override.
For C, standard SIESTA heuristics set lmxkb to 3
 (one more than the basis l, including polarization orbitals).
Use PS.lmax or PS.KBprojectors blocks to override.

<basis_specs>
===============================================================================
N                    Z=   7    Mass=  14.010        Charge= 0.17977+309
Lmxo=1 Lmxkb= 3    BasisType=split      Semic=F
L=0  Nsemic=0  Cnfigmx=2
          n=1  nzeta=2  polorb=0
            splnorm:   0.15000    
               vcte:    0.0000    
               rinn:    0.0000    
                rcs:    0.0000      0.0000    
            lambdas:    1.0000      1.0000    
L=1  Nsemic=0  Cnfigmx=2
          n=1  nzeta=2  polorb=1
            splnorm:   0.15000    
               vcte:    0.0000    
               rinn:    0.0000    
                rcs:    0.0000      0.0000    
            lambdas:    1.0000      1.0000    
-------------------------------------------------------------------------------
L=0  Nkbl=1  erefs: 0.17977+309
L=1  Nkbl=1  erefs: 0.17977+309
L=2  Nkbl=1  erefs: 0.17977+309
L=3  Nkbl=1  erefs: 0.17977+309
===============================================================================
</basis_specs>

atom: Called for N                     (Z =   7)

read_vps: Pseudopotential generation method:
read_vps: ATM3      Troullier-Martins                       
Total valence charge:    5.00000

read_vps: Pseudopotential includes a core correction:
read_vps: Pseudo-core for xc-correction

xc_check: Exchange-correlation functional:
xc_check: GGA Perdew, Burke & Ernzerhof 1996
V l=0 = -2*Zval/r beyond r=  1.4606
V l=1 = -2*Zval/r beyond r=  1.4606
V l=2 = -2*Zval/r beyond r=  1.4606
V l=3 = -2*Zval/r beyond r=  1.4606
All V_l potentials equal beyond r=  1.4606
This should be close to max(r_c) in ps generation
All pots = -2*Zval/r beyond r=  1.4606

VLOCAL1: 99.0% of the norm of Vloc inside     20.347 Ry
VLOCAL1: 99.9% of the norm of Vloc inside     46.372 Ry
atom: Maximum radius for 4*pi*r*r*local-pseudopot. charge    1.76189
atom: Maximum radius for r*vlocal+2*Zval:    1.53550
GHOST: No ghost state for L =  0
GHOST: No ghost state for L =  1
GHOST: No ghost state for L =  2
GHOST: No ghost state for L =  3

KBgen: Kleinman-Bylander projectors: 
   l= 0   rc=  1.634559   el= -1.363963   Ekb=  5.296955   kbcos=  0.335621
   l= 1   rc=  1.614250   el= -0.521451   Ekb= -5.259161   kbcos= -0.433408
   l= 2   rc=  1.718383   el=  0.001991   Ekb= -1.271464   kbcos= -0.007566
   l= 3   rc=  1.761893   el=  0.003093   Ekb= -0.494769   kbcos= -0.001015

KBgen: Total number of  Kleinman-Bylander projectors:   16
atom: -------------------------------------------------------------------------

atom: SANKEY-TYPE ORBITALS:
atom: Selected multiple-zeta basis: split     

SPLIT: Orbitals with angular momentum L= 0

SPLIT: Basis orbitals for state 2s

SPLIT: PAO cut-off radius determined from an
SPLIT: energy shift=  0.007350 Ry

   izeta = 1
                 lambda =    1.000000
                     rc =    4.071465
                 energy =   -1.356470
                kinetic =    1.176977
    potential(screened) =   -2.533447
       potential(ionic) =   -8.057990

   izeta = 2
                 rmatch =    2.905100
              splitnorm =    0.150000
                 energy =   -1.158343
                kinetic =    1.813009
    potential(screened) =   -2.971352
       potential(ionic) =   -8.901931

SPLIT: Orbitals with angular momentum L= 1

SPLIT: Basis orbitals for state 2p

SPLIT: PAO cut-off radius determined from an
SPLIT: energy shift=  0.007350 Ry

   izeta = 1
                 lambda =    1.000000
                     rc =    4.972977
                 energy =   -0.513884
                kinetic =    3.441732
    potential(screened) =   -3.955616
       potential(ionic) =   -9.287901

   izeta = 2
                 rmatch =    3.054066
              splitnorm =    0.150000
                 energy =   -0.318226
                kinetic =    5.125348
    potential(screened) =   -5.443573
       potential(ionic) =  -11.380999

POLgen: Perturbative polarization orbital with L=  2

POLgen: Polarization orbital for state 2p

   izeta = 1
                     rc =    4.972977
                 energy =    1.607437
                kinetic =    3.268125
    potential(screened) =   -1.660688
       potential(ionic) =   -5.973652
atom: Total number of Sankey-type orbitals: 13

atm_pop: Valence configuration (for local Pseudopot. screening):
 2s( 2.00)                                                            
 2p( 3.00)                                                            
Vna: chval, zval:    5.00000   5.00000

Vna:  Cut-off radius for the neutral-atom potential:   4.972977
comcore: Pseudo-core radius Rcore=  1.554824

atom: _________________________________________________________________________

<basis_specs>
===============================================================================
C                    Z=   6    Mass=  12.010        Charge= 0.17977+309
Lmxo=1 Lmxkb= 3    BasisType=split      Semic=F
L=0  Nsemic=0  Cnfigmx=2
          n=1  nzeta=2  polorb=0
            splnorm:   0.15000    
               vcte:    0.0000    
               rinn:    0.0000    
                rcs:    0.0000      0.0000    
            lambdas:    1.0000      1.0000    
L=1  Nsemic=0  Cnfigmx=2
          n=1  nzeta=2  polorb=1
            splnorm:   0.15000    
               vcte:    0.0000    
               rinn:    0.0000    
                rcs:    0.0000      0.0000    
            lambdas:    1.0000      1.0000    
-------------------------------------------------------------------------------
L=0  Nkbl=1  erefs: 0.17977+309
L=1  Nkbl=1  erefs: 0.17977+309
L=2  Nkbl=1  erefs: 0.17977+309
L=3  Nkbl=1  erefs: 0.17977+309
===============================================================================
</basis_specs>

atom: Called for C                     (Z =   6)

read_vps: Pseudopotential generation method:
read_vps: ATM3      Troullier-Martins                       
Total valence charge:    4.00000

read_vps: Pseudopotential includes a core correction:
read_vps: Pseudo-core for xc-correction

xc_check: Exchange-correlation functional:
xc_check: GGA Perdew, Burke & Ernzerhof 1996
V l=0 = -2*Zval/r beyond r=  1.5227
V l=1 = -2*Zval/r beyond r=  1.5227
V l=2 = -2*Zval/r beyond r=  1.5227
V l=3 = -2*Zval/r beyond r=  1.5038
All V_l potentials equal beyond r=  1.5227
This should be close to max(r_c) in ps generation
All pots = -2*Zval/r beyond r=  1.5227

VLOCAL1: 99.0% of the norm of Vloc inside     18.722 Ry
VLOCAL1: 99.9% of the norm of Vloc inside     42.668 Ry
atom: Maximum radius for 4*pi*r*r*local-pseudopot. charge    1.83678
atom: Maximum radius for r*vlocal+2*Zval:    1.58088
GHOST: No ghost state for L =  0
GHOST: No ghost state for L =  1
GHOST: No ghost state for L =  2
GHOST: No ghost state for L =  3

KBgen: Kleinman-Bylander projectors: 
   l= 0   rc=  1.704034   el= -1.009801   Ekb=  5.335044   kbcos=  0.316824
   l= 1   rc=  1.704034   el= -0.388707   Ekb= -3.785862   kbcos= -0.366464
   l= 2   rc=  1.791422   el=  0.001971   Ekb= -0.970471   kbcos= -0.009212
   l= 3   rc=  1.859892   el=  0.003065   Ekb= -0.399525   kbcos= -0.001223

KBgen: Total number of  Kleinman-Bylander projectors:   16
atom: -------------------------------------------------------------------------

atom: SANKEY-TYPE ORBITALS:
atom: Selected multiple-zeta basis: split     

SPLIT: Orbitals with angular momentum L= 0

SPLIT: Basis orbitals for state 2s

SPLIT: PAO cut-off radius determined from an
SPLIT: energy shift=  0.007350 Ry

   izeta = 1
                 lambda =    1.000000
                     rc =    4.632753
                 energy =   -1.002270
                kinetic =    0.855760
    potential(screened) =   -1.858031
       potential(ionic) =   -5.417575

   izeta = 2
                 rmatch =    3.431921
              splitnorm =    0.150000
                 energy =   -0.867111
                kinetic =    1.300804
    potential(screened) =   -2.167915
       potential(ionic) =   -5.962684

SPLIT: Orbitals with angular momentum L= 1

SPLIT: Basis orbitals for state 2p

SPLIT: PAO cut-off radius determined from an
SPLIT: energy shift=  0.007350 Ry

   izeta = 1
                 lambda =    1.000000
                     rc =    5.658549
                 energy =   -0.381140
                kinetic =    2.399701
    potential(screened) =   -2.780841
       potential(ionic) =   -6.206085

   izeta = 2
                 rmatch =    3.653288
              splitnorm =    0.150000
                 energy =   -0.249149
                kinetic =    3.542762
    potential(screened) =   -3.791911
       potential(ionic) =   -7.581078

POLgen: Perturbative polarization orbital with L=  2

POLgen: Polarization orbital for state 2p

   izeta = 1
                     rc =    5.658549
                 energy =    1.109913
                kinetic =    2.304789
    potential(screened) =   -1.194876
       potential(ionic) =   -4.013592
atom: Total number of Sankey-type orbitals: 13

atm_pop: Valence configuration (for local Pseudopot. screening):
 2s( 2.00)                                                            
 2p( 2.00)                                                            
Vna: chval, zval:    4.00000   4.00000

Vna:  Cut-off radius for the neutral-atom potential:   5.658549
comcore: Pseudo-core radius Rcore=  1.791422

atom: _________________________________________________________________________

prinput: Basis input ----------------------------------------------------------

PAO.BasisType split     

%block ChemicalSpeciesLabel
    1    7 N                       # Species index, atomic number, species label
    2    6 C                       # Species index, atomic number, species label
%endblock ChemicalSpeciesLabel

%block PAO.Basis                 # Define Basis set
N                     2                    # Species label, number of l-shells
 n=2   0   2                         # n, l, Nzeta 
   4.071      2.905   
   1.000      1.000   
 n=2   1   2 P   1                   # n, l, Nzeta, Polarization, NzetaPol
   4.973      3.054   
   1.000      1.000   
C                     2                    # Species label, number of l-shells
 n=2   0   2                         # n, l, Nzeta 
   4.633      3.432   
   1.000      1.000   
 n=2   1   2 P   1                   # n, l, Nzeta, Polarization, NzetaPol
   5.659      3.653   
   1.000      1.000   
%endblock PAO.Basis

prinput: ----------------------------------------------------------------------

coor:   Atomic-coordinates input format  =     Fractional

siesta: Atomic coordinates (Bohr) and species
siesta:     -2.35420  38.89134   0.00000  1        1
siesta:     -2.35420  41.57980   0.00000  1        2
siesta:      2.30256  38.89134   0.00000  1        3
siesta:      2.30256  41.57980   0.00000  1        4
siesta:     -4.68258  34.85847   0.00000  1        5
siesta:     -4.68258  37.54693   0.00000  1        6
siesta:     -7.01096  22.75985   0.00000  1        7
siesta:     -7.01096  25.44831   0.00000  1        8
siesta:    -11.66772  22.75985   0.00000  1        9
siesta:    -11.66772  25.44831   0.00000  1       10
siesta:     -9.33934  26.79272   0.00000  1       11
siesta:     -9.33934  29.48119   0.00000  1       12
siesta:     -0.02582  29.48119   0.00000  1       13
siesta:     -4.68258  26.79272   0.00000  1       14
siesta:     -4.68258  29.48119   0.00000  1       15
siesta:      2.30256  30.82560   0.00000  1       16
siesta:     -2.35420  30.82560   0.00000  1       17
siesta:     -2.35420  33.51406   0.00000  1       18
siesta:     -7.01096  30.82560   0.00000  1       19
siesta:     -7.01096  33.51406   0.00000  1       20
siesta:     -0.02582  34.85847   0.00000  1       21
siesta:     -0.02582  37.54693   0.00000  1       22
siesta:     -0.02582   2.59549   0.00000  2       23
siesta:     -0.02582   5.28395   0.00000  2       24
siesta:      4.63094  34.85847   0.00000  2       25
siesta:      4.63094  37.54693   0.00000  2       26
siesta:      6.95932  30.82560   0.00000  2       27
siesta:      6.95932  33.51406   0.00000  2       28
siesta:      9.28770  26.79272   0.00000  2       29
siesta:      9.28770  29.48119   0.00000  2       30
siesta:      2.30256   6.62836   0.00000  2       31
siesta:      2.30256   9.31683   0.00000  2       32
siesta:      4.63094  10.66124   0.00000  2       33
siesta:      4.63094  13.34970   0.00000  2       34
siesta:      6.95932  14.69411   0.00000  2       35
siesta:      6.95932  17.38257   0.00000  2       36
siesta:      9.28770  18.72698   0.00000  2       37
siesta:      9.28770  21.41544   0.00000  2       38
siesta:     11.61608  22.75985   0.00000  2       39
siesta:     11.61608  25.44831   0.00000  2       40
siesta:     -2.35420   6.62836   0.00000  2       41
siesta:     -2.35420   9.31683   0.00000  2       42
siesta:     -0.02582  10.66124   0.00000  2       43
siesta:     -0.02582  13.34970   0.00000  2       44
siesta:      2.30256  14.69411   0.00000  2       45
siesta:      2.30256  17.38257   0.00000  2       46
siesta:      4.63094  18.72698   0.00000  2       47
siesta:      4.63094  21.41544   0.00000  2       48
siesta:      6.95932  22.75985   0.00000  2       49
siesta:      6.95932  25.44831   0.00000  2       50
siesta:     -4.68258  10.66124   0.00000  2       51
siesta:     -4.68258  13.34970   0.00000  2       52
siesta:     -2.35420  14.69411   0.00000  2       53
siesta:     -2.35420  17.38257   0.00000  2       54
siesta:     -0.02582  18.72698   0.00000  2       55
siesta:     -0.02582  21.41544   0.00000  2       56
siesta:      2.30256  22.75985   0.00000  2       57
siesta:      2.30256  25.44831   0.00000  2       58
siesta:     -7.01096  14.69411   0.00000  2       59
siesta:     -7.01096  17.38257   0.00000  2       60
siesta:     -4.68258  18.72698   0.00000  2       61
siesta:     -4.68258  21.41544   0.00000  2       62
siesta:     -2.35420  22.75985   0.00000  2       63
siesta:     -2.35420  25.44831   0.00000  2       64
siesta:     -9.33934  18.72698   0.00000  2       65
siesta:     -9.33934  21.41544   0.00000  2       66
siesta:      4.63094  26.79272   0.00000  2       67
siesta:      4.63094  29.48119   0.00000  2       68
siesta:     -0.02582  26.79272   0.00000  2       69
siesta:      2.30256  33.51406   0.00000  2       70
siesta:     -0.02582  42.92421   0.00000  2       71
siesta:     -0.02582  45.61267   0.00000  2       72

siesta: System type = slab      

initatomlists: Number of atoms, orbitals, and projectors:     72   936  1152

siesta: ******************** Simulation parameters ****************************
siesta:
siesta: The following are some of the parameters of the simulation.
siesta: A complete list of the parameters used, including default values,
siesta: can be found in file out.fdf
siesta:
redata: Non-Collinear-spin run           =     F
redata: SpinPolarized (Up/Down) run      =     F
redata: Number of spin components        =     1
redata: Long output                      =     F
redata: Number of Atomic Species         =        2
redata: Charge density info will appear in .RHO file
redata: Write Mulliken Pop.              =     NO
redata: Mesh Cutoff                      =   200.0000  Ry
redata: Net charge of the system         =     0.0000 |e|
redata: Max. number of SCF Iter          =      500
redata: SCF convergence failure will abort job
redata: Performing Pulay mixing using    =    10 iterations
redata: Mix DM in first SCF step ?       =     F
redata: Write Pulay info on disk?        =     F
redata: Discard 1st Pulay DM after  kick =     F
redata: New DM Mixing Weight             =     0.0500
redata: New DM Occupancy tolerance       = 0.000000000001
redata: No kicks to SCF
redata: DM Mixing Weight for Kicks       =     0.5000
redata: DM Tolerance for SCF             =     0.000100
redata: Require Energy convergence for SCF =     F
redata: DM Energy tolerance for SCF      =     0.000100 eV
redata: Require Harris convergence for SCF =     F
redata: DM Harris energy tolerance for SCF =     0.000100 eV
redata: Using Saved Data (generic)   =     F
redata: Use continuation files for DM    =     T
redata: Neglect nonoverlap interactions  =     F
redata: Method of Calculation            =     Diagonalization
redata: Divide and Conquer               =     T
redata: Electronic Temperature           =     0.0019  Ry
redata: Fix the spin of the system       =     F
redata: Dynamics option                  =     Verlet MD run
redata: Initial MD time step             =        1
redata:   Final MD time step             =        1
redata: Length of MD time step           =     1.0000  fs
redata: Initial Temperature of MD run    =     0.0000  K
redata: Perform a MD quench              =     F
redata: ***********************************************************************
Total number of electrons:   310.000000
Total ionic charge:   310.000000

* ProcessorY, Blocksize:    2  24

k-point displ. along   1 input, could be:     0.50    0.00
k-point displ. along   2 input, could be:     0.50    0.00
 Kpoints in:          231 . Kpoints trimmed:          231

siesta: k-grid: Number of k-points =   231
siesta: k-grid: Cutoff (effective) =     5.000 Ang
siesta: k-grid: Supercell and displacements
siesta: k-grid:   21   0   0      0.500
siesta: k-grid:    0  21   0      0.500
siesta: k-grid:    0   0   1      0.000
Naive supercell factors:     2    2    2

superc: Internal auxiliary supercell:     2 x     2 x     2  =       8
superc: Number of atoms, orbitals, and projectors:    576   7488   9216

* Maximum dynamic memory allocated =     4 MB

siesta:                 ==============================
                            Begin MD step =      1
                        ==============================

superc: Internal auxiliary supercell:     2 x     2 x     2  =       8
superc: Number of atoms, orbitals, and projectors:    576   7488   9216

outcell: Unit cell vectors (Ang):
       12.804619    7.392750    0.000000
        0.000000   14.785500    0.000000
        0.000000    0.000000   10.000000

outcell: Cell vector modules (Ang)   :   14.785500   14.785500   10.000000
outcell: Cell angles (23,13,12) (deg):     90.0000     90.0000     60.0000
outcell: Cell volume (Ang**3)        :   1893.2269
New_DM. Step:     1
Initializing Density Matrix...

InitMesh: MESH =   120 x   120 x    90 =     1296000
InitMesh: Mesh cutoff (required, used) =   200.000   223.865 Ry

* Maximum dynamic memory allocated =   178 MB

stepf: Fermi-Dirac step function

siesta: Program's energy decomposition (eV):
siesta: Ebs     =     -6356.212144
siesta: Eions   =     21939.441643
siesta: Ena     =      4960.176227
siesta: Ekin    =      8224.476411
siesta: Enl     =       -14.138287
siesta: DEna    =        -0.000015
siesta: DUscf   =         0.000000
siesta: DUext   =         0.000000
siesta: Exc     =     -4729.344264
siesta: eta*DQ  =         0.000000
siesta: Emadel  =         0.000000
siesta: Emeta   =         0.000000
siesta: Emolmec =         0.000000
siesta: Ekinion =         0.000000
siesta: Eharris =    -13113.482630
siesta: Etot    =    -13498.271571
siesta: FreeEng =    -13498.271571

siesta: iscf   Eharris(eV)      E_KS(eV)   FreeEng(eV)   dDmax  Ef(eV)
siesta:    1   -13113.4826   -13498.2716   -13498.2716  5.9556 -6.8802
timer: Routine,Calls,Time,% = IterSCF        1    3375.795  99.70
elaps: Routine,Calls,Wall,% = IterSCF        1     422.779  99.70
siesta:    2   -16535.4494   -12571.2642   -12571.3284 14.7643 -1.7832
siesta:    3   -13009.0032   -13285.5226   -13285.5920  2.3154 -4.9975
siesta:    4   -12977.8437   -13142.8735   -13142.9048  1.1584 -4.1461
siesta:    5   -12959.5440   -13074.0243   -13074.0632  0.9479 -3.8503
siesta:    6   -12955.4988   -13056.3308   -13056.3738  0.8199 -3.9046
siesta:    7   -12952.5543   -13033.4295   -13033.4637  0.7752 -3.9039
siesta:    8   -12951.3354   -13000.3807   -13000.4255  0.5164 -3.9694
siesta:    9   -12950.7454   -12984.6273   -12984.6834  0.4171 -3.9288
siesta:   10   -12950.8905   -12962.0456   -12962.1057  0.3581 -3.9165
siesta:   11   -12950.1479   -12953.7558   -12953.8156  0.2528 -3.8650
siesta:   12   -12950.0260   -12945.6378   -12945.6978  0.4631 -3.8345
siesta:   13   -12949.8983   -12944.4349   -12944.5040  0.2592 -3.8532
siesta:   14   -12949.6460   -12944.8539   -12944.9073  0.1982 -3.8885
siesta:   15   -12949.5439   -12944.3717   -12944.4323  0.0674 -3.8924
siesta:   16   -12949.5064   -12944.3456   -12944.4096  0.0479 -3.8942
siesta:   17   -12949.4830   -12944.9898   -12945.0547  0.0412 -3.8937
siesta:   18   -12949.4750   -12946.6185   -12946.6854  0.0442 -3.9003
siesta:   19   -12949.4693   -12948.4291   -12948.4929  0.0766 -3.9051
siesta:   20   -12949.4665   -12949.4221   -12949.4890  0.0149 -3.9092
siesta:   21   -12949.4640   -12949.5295   -12949.5940  0.0119 -3.9057
siesta:   22   -12949.4630   -12949.6324   -12949.6978  0.0159 -3.9035
siesta:   23   -12949.4621   -12949.4960   -12949.5623  0.0084 -3.9014
siesta:   24   -12949.4624   -12949.4788   -12949.5446  0.0052 -3.9013
siesta:   25   -12949.4620   -12949.3750   -12949.4402  0.0040 -3.9009
siesta:   26   -12949.4621   -12949.3235   -12949.3889  0.0022 -3.9015
siesta:   27   -12949.4620   -12949.3371   -12949.4023  0.0013 -3.9019
siesta:   28   -12949.4620   -12949.3533   -12949.4185  0.0012 -3.9020
siesta:   29   -12949.4620   -12949.3850   -12949.4502  0.0006 -3.9019
siesta:   30   -12949.4620   -12949.4003   -12949.4656  0.0003 -3.9020
siesta:   31   -12949.4620   -12949.4212   -12949.4864  0.0005 -3.9021
siesta:   32   -12949.4620   -12949.4410   -12949.5062  0.0002 -3.9022
siesta:   33   -12949.4620   -12949.4504   -12949.5156  0.0002 -3.9022
siesta:   34   -12949.4620   -12949.4571   -12949.5223  0.0001 -3.9022

siesta: E_KS(eV) =           -12949.4591

siesta: E_KS - E_eggbox =    -12949.4591

siesta: Atomic forces (eV/Ang):
----------------------------------------
   Tot   -0.176831   -0.116792    0.000000
----------------------------------------
   Max  689.289308
   Res  183.596982    sqrt( Sum f_i^2 / 3N )
----------------------------------------
   Max  689.289308    constrained

Stress-tensor-Voigt (kbar):     -647.10    -3323.83       -0.06       10.37        0.00        0.00
(Free)E + p*V (eV/cell)   -11385.4196
Target enthalpy (eV/cell)   -12949.5243

siesta: Stress tensor (static) (eV/Ang**3):
        -0.403883    0.006471    0.000000
         0.006471   -2.074551    0.000000
         0.000000    0.000000   -0.000040

siesta: Pressure (static):       1323.66547166  kBar

siesta: Stress tensor (total) (eV/Ang**3):
        -0.403883    0.006471    0.000000
         0.006471   -2.074551    0.000000
         0.000000    0.000000   -0.000040

siesta: Pressure (total):       1323.66547166  kBar

siesta: Temp_ion =       0.000 K

* Maximum dynamic memory allocated =   194 MB
Computing bands...

siesta: Program's energy decomposition (eV):
siesta: Ebs     =     -5058.795598
siesta: Eions   =     21939.441643
siesta: Ena     =      4960.176227
siesta: Ekin    =     11416.327367
siesta: Enl     =     -1749.696301
siesta: DEna    =      -837.663780
siesta: DUscf   =       115.494921
siesta: DUext   =         0.000000
siesta: Exc     =     -4914.655897
siesta: eta*DQ  =         0.000000
siesta: Emadel  =         0.000000
siesta: Emeta   =         0.000000
siesta: Emolmec =         0.000000
siesta: Ekinion =         0.000000
siesta: Eharris =    -12949.461981
siesta: Etot    =    -12949.459105
siesta: FreeEng =    -12949.524316

siesta: Final energy (eV):
siesta:  Band Struct. =   -5058.795598
siesta:       Kinetic =   11416.327367
siesta:       Hartree =   36999.790221
siesta:    Ext. field =       0.000000
siesta:   Exch.-corr. =   -4914.655897
siesta:  Ion-electron =  -84880.118325
siesta:       Ion-ion =   28429.197528
siesta:       Ekinion =       0.000000
siesta:         Total =  -12949.459105

siesta: Atomic forces (eV/Ang):
siesta:      1    0.827219  108.968174    0.000000
siesta:      2  -20.912146 -653.973212    0.000000
siesta:      3    3.460101  105.076954    0.000000
siesta:      4   16.347941 -651.033649    0.000000
siesta:      5  -30.191285    8.277821    0.000000
siesta:      6  -27.337743 -657.958593    0.000000
siesta:      7    0.839918   -1.143738    0.000000
siesta:      8    0.210634    0.347092    0.000000
siesta:      9    1.840139    3.070707    0.000000
siesta:     10    0.736688   -2.151389    0.000000
siesta:     11    0.736207    0.424904    0.000000
siesta:     12    0.179128    0.118182    0.000000
siesta:     13    2.650352 -689.289308    0.000000
siesta:     14    0.295285   -0.690309    0.000000
siesta:     15   -2.663570   -2.606520    0.000000
siesta:     16   33.821447    9.941630    0.000000
siesta:     17  -32.710513    9.367904    0.000000
siesta:     18    0.773219 -676.569193    0.000000
siesta:     19   -0.976563   -1.194526    0.000000
siesta:     20   -0.978706   -3.191467    0.000000
siesta:     21    3.181530  106.444855    0.000000
siesta:     22   -0.942142 -666.560203    0.000000
siesta:     23    2.091019  644.212531    0.000000
siesta:     24   -0.543737 -117.175999    0.000000
siesta:     25   27.472771    3.904976    0.000000
siesta:     26   32.006626 -552.999873    0.000000
siesta:     27    1.364994    0.228785    0.000000
siesta:     28   -3.206335    1.674243    0.000000
siesta:     29    2.162906    2.532741    0.000000
siesta:     30   -1.415707   -0.064373    0.000000
siesta:     31   -1.370668  548.464158    0.000000
siesta:     32   -1.190939 -121.592803    0.000000
siesta:     33   20.888871  550.887221    0.000000
siesta:     34   26.992042   -3.640197    0.000000
siesta:     35   -3.436916   -1.867659    0.000000
siesta:     36    1.726570    0.417569    0.000000
siesta:     37   -1.565911    0.221085    0.000000
siesta:     38    1.790283   -2.661923    0.000000
siesta:     39    0.187256    8.056877    0.000000
siesta:     40   -0.213846   -7.923499    0.000000
siesta:     41  -23.088484  654.266395    0.000000
siesta:     42    2.095660 -115.295068    0.000000
siesta:     43   -5.698794  674.648755    0.000000
siesta:     44   -0.453802 -118.224218    0.000000
siesta:     45   15.551639  678.737854    0.000000
siesta:     46   23.829485   -6.685002    0.000000
siesta:     47   -0.961211    3.013594    0.000000
siesta:     48    0.657055   -0.637556    0.000000
siesta:     49   -0.228714    0.506083    0.000000
siesta:     50   -0.104176   -0.540055    0.000000
siesta:     51  -20.663647  658.332141    0.000000
siesta:     52  -26.251035   -3.751740    0.000000
siesta:     53   -7.843355  683.411823    0.000000
siesta:     54  -24.170656   -5.967474    0.000000
siesta:     55   -0.319537  561.073608    0.000000
siesta:     56   -0.368496    1.942046    0.000000
siesta:     57   -0.403199    0.101290    0.000000
siesta:     58   -0.270982   -0.193203    0.000000
siesta:     59    2.157994   -0.750962    0.000000
siesta:     60   -1.425200   -0.422669    0.000000
siesta:     61    0.838386    3.691309    0.000000
siesta:     62   -2.000196    0.025364    0.000000
siesta:     63    0.330370    0.073312    0.000000
siesta:     64   -0.954263    1.481359    0.000000
siesta:     65    0.067549    1.152250    0.000000
siesta:     66   -1.603669    0.267544    0.000000
siesta:     67    0.011706    0.984209    0.000000
siesta:     68   -0.613988   -2.728347    0.000000
siesta:     69   -0.404069    0.835697    0.000000
siesta:     70   22.128112 -559.060970    0.000000
siesta:     71   -2.819404  139.886690    0.000000
siesta:     72   -0.124332 -548.640825    0.000000
siesta: ----------------------------------------
siesta:    Tot   -0.176831   -0.116792    0.000000

siesta: Stress tensor (static) (eV/Ang**3):
siesta:    -0.403883    0.006471    0.000000
siesta:     0.006471   -2.074551    0.000000
siesta:     0.000000    0.000000   -0.000040

siesta: Cell volume =       1893.226884 Ang**3

siesta: Pressure (static):
siesta:                Solid            Molecule  Units
siesta:           0.00899792          0.14647776  Ry/Bohr**3
siesta:           0.82615808         13.44909024  eV/Ang**3
siesta:        1323.66547166      21548.05104360  kBar
(Free)E+ p_basis*V_orbitals  =      -12921.931898
(Free)Eharris+ p_basis*V_orbitals  =      -12921.936769

siesta: Electric dipole (a.u.)  =    0.000000    0.000000    0.000000
siesta: Electric dipole (Debye) =    0.000000    0.000000    0.000000

* Maximum dynamic memory allocated : Node    0 =   194 MB
* Maximum dynamic memory allocated : Node    1 =    71 MB
* Maximum dynamic memory allocated : Node    2 =    71 MB
* Maximum dynamic memory allocated : Node    3 =   182 MB
* Maximum dynamic memory allocated : Node    4 =   190 MB
* Maximum dynamic memory allocated : Node    5 =    71 MB
* Maximum dynamic memory allocated : Node    6 =    73 MB
* Maximum dynamic memory allocated : Node    7 =   176 MB

* Maximum memory occured during matrixMtoO                    

timer: CPU execution times:
timer:  Routine       Calls   Time/call    Tot.time        %
timer:  siesta            1  114074.749  114074.749   100.00
timer:  Setup             1       2.672       2.672     0.00
timer:  bands             3     243.567     730.701     0.64
timer:  writewave         1       0.019       0.019     0.00
timer:  KSV_init          1       0.000       0.000     0.00
timer:  IterMD            1  113336.158  113336.158    99.35
timer:  hsparse           1       0.283       0.283     0.00
timer:  overlap           1       7.118       7.118     0.01
timer:  IterSCF          34    3329.293  113195.960    99.23
timer:  kinefsm           2       3.669       7.338     0.01
timer:  nlefsm            2      17.276      34.553     0.03
timer:  DHSCF            35      69.473    2431.539     2.13
timer:  DHSCF1            1       0.745       0.745     0.00
timer:  DHSCF2            1      29.688      29.688     0.03
timer:  REORD           282       0.005       1.403     0.00
timer:  POISON           36       0.877      31.558     0.03
timer:  DHSCF3           35      67.795    2372.826     2.08
timer:  rhoofd           35      15.116     529.057     0.46
timer:  cellXC           35       3.222     112.771     0.10
timer:  vmat             35      31.413    1099.462     0.96
timer:  MolMec            2       0.000       0.000     0.00
timer:  diagon           34    3259.012  110806.413    97.13
timer:  c-eigval       7975       6.025   48048.470    42.12
timer:  c-buildHS      7975       0.046     363.982     0.32
timer:  cdiag         15829       6.166   97604.769    85.56
timer:  cdiag1        15829       0.384    6078.074     5.33
timer:  cdiag2        15829       1.764   27922.211    24.48
timer:  cdiag3        15829       3.736   59139.690    51.84
timer:  cdiag4        15829       0.151    2393.828     2.10
timer:  c-eigvec       7854       6.394   50218.114    44.02
timer:  c-buildD       7854       1.684   13230.052    11.60
timer:  DHSCF4            1      27.635      27.635     0.02
timer:  dfscf             1      25.787      25.787     0.02
timer:  overfsm           1       0.376       0.376     0.00
timer:  optical           1       4.559       4.559     0.00
  

elaps: ELAPSED times:
elaps:  Routine       Calls   Time/call    Tot.time        %
elaps:  siesta            1   14286.073   14286.073   100.00
elaps:  Setup             1       0.335       0.335     0.00
elaps:  bands             3      30.520      91.559     0.64
elaps:  writewave         1       0.002       0.002     0.00
elaps:  KSV_init          1       0.000       0.000     0.00
elaps:  IterMD            1   14193.576   14193.576    99.35
elaps:  hsparse           1       0.038       0.038     0.00
elaps:  overlap           1       0.895       0.895     0.01
elaps:  IterSCF          34     416.942   14176.019    99.23
elaps:  kinefsm           2       0.464       0.927     0.01
elaps:  nlefsm            2       2.218       4.437     0.03
elaps:  DHSCF            35       8.796     307.844     2.15
elaps:  DHSCF1            1       0.095       0.095     0.00
elaps:  DHSCF2            1       3.716       3.716     0.03
elaps:  REORD           282       0.001       0.189     0.00
elaps:  POISON           36       0.110       3.971     0.03
elaps:  DHSCF3           35       8.491     297.185     2.08
elaps:  rhoofd           35       3.958     138.528     0.97
elaps:  cellXC           35       0.403      14.119     0.10
elaps:  vmat             35       3.934     137.707     0.96
elaps:  MolMec            2       0.000       0.000     0.00
elaps:  diagon           34     408.149   13877.057    97.14
elaps:  c-eigval       7975       0.755    6017.189    42.12
elaps:  c-buildHS      7975       0.006      51.596     0.36
elaps:  cdiag         15829       0.767   12136.855    84.96
elaps:  cdiag1        15829       0.048     757.161     5.30
elaps:  cdiag2        15829       0.221    3497.425    24.48
elaps:  cdiag3        15829       0.469    7416.270    51.91
elaps:  cdiag4        15829       0.019     296.333     2.07
elaps:  c-eigvec       7854       0.791    6216.306    43.51
elaps:  c-buildD       7854       0.220    1727.861    12.09
elaps:  DHSCF4            1       6.765       6.765     0.05
elaps:  dfscf             1       6.379       6.379     0.04
elaps:  overfsm           1       0.051       0.051     0.00
elaps:  optical           1       0.000       0.000     0.00
  
>> End of run:  26-APR-2016  19:16:07
