Siesta Version:                                        siesta-3.2-pl-3
Architecture  : x86_64-unknown-linux-gnu--unknown
Compiler flags: mpiifort -g -O2 -fPIC -xSSE4.1 -fp-model source -shared-intel 
PARALLEL version

* Running on    8 nodes in parallel
>> Start of run:  29-APR-2016  23:25:33

                           ***********************       
                           *  WELCOME TO SIESTA  *       
                           ***********************       

reinit: Reading from standard input
************************** Dump of input data file ****************************
#(1) General system descriptors
SystemName            GRP_doping    # Descriptive name of the system
SystemLabel           GRP_doping    # Short name for naming files
%include STRUCT.fdf
%include KPT.fdf
%include BASIS.fdf
#%include TS.fdf # for transiesta calculation
#(4) DFT, Grid, SCF
XC.functional         GGA           # LDA or GGA (default = LDA)
XC.authors            PBE           # CA (Ceperley-Aldr) = PZ
                                    #    (Perdew-Zunger) - LDA - Default
                                    # PW92 (Perdew-Wang-92) - LDA
                                    # PBE (Perdew-Burke-Ernzerhof) - GGA
MeshCutoff            200.000000    Ry      # Default: 50.0 Ry ~ 0.444 Bohr
                                    #         100.0 Ry ~ 0.314 Bohr
MaxSCFIterations      500           # Default: 50
DM.MixingWeight       0.05          # Default: 0.25
DM.NumberPulay        10            # Default: 0
DM.PulayOnFile        F             # SystemLabel.P1, SystemLabel.P2
DM.Tolerance          1.d-4         # Default: 1.d-4
DM.UseSaveDM          .true.        # because of the bug
SCFMustConverge       .true.
NeglNonOverlapInt     F             # Default: F
#(5) Eigenvalue problem: order-N or diagonalization
SolutionMethod        Diagon        # or Transiesta
ElectronicTemperature 300.0 K       # Default: 300.0 K
#(6) Molecular dynamics and relaxations
#MD.TypeOfRun          CG            # Type of dynamics:
#MD.VariableCell       F
#MD.NumCGsteps         0           # 0 for single-point / 100 for gopt
#MD.MaxCGDispl         0.2 Bohr      # Default: 0.2 Bohr
#MD.MaxForceTol        0.02 eV/Ang   # Default: 0.04 eV/Ang
#MD.MaxStressTol       1.0 GPa       # Default: 1.0 GPa
# Geometry Constraints
#%block GeometryConstraints
#	position from 1 to 44
#%endblock GeometryConstraints
BandLinesScale   pi/a
%block BandLines
 1   0.00000000  0.00000000  0.00000000
50   0.00000000  0.07809418  0.00000000
50   0.04509075  0.07809242  0.00000000
20   0.00000000  0.00000000  0.00000000
%endblock BandLines
************************** End of input data file *****************************

reinit: -----------------------------------------------------------------------
reinit: System Name: GRP_doping
reinit: -----------------------------------------------------------------------
reinit: System Label: GRP_doping                                                  
reinit: -----------------------------------------------------------------------

initatom: Reading input for the pseudopotentials and atomic orbitals ----------
 Species number:            1  Label: B Atomic number:           5
 Species number:            2  Label: C Atomic number:           6
Ground state valence configuration:   2s02  2p01
Reading pseudopotential information in formatted form from B.psf

Valence configuration for pseudopotential generation:
2s( 2.00) rc: 1.74
2p( 1.00) rc: 1.74
3d( 0.00) rc: 1.74
4f( 0.00) rc: 1.74
Ground state valence configuration:   2s02  2p02
Reading pseudopotential information in formatted form from C.psf

Valence configuration for pseudopotential generation:
2s( 2.00) rc: 1.54
2p( 2.00) rc: 1.54
3d( 0.00) rc: 1.54
4f( 0.00) rc: 1.54
For B, standard SIESTA heuristics set lmxkb to 3
 (one more than the basis l, including polarization orbitals).
Use PS.lmax or PS.KBprojectors blocks to override.
For C, standard SIESTA heuristics set lmxkb to 3
 (one more than the basis l, including polarization orbitals).
Use PS.lmax or PS.KBprojectors blocks to override.

<basis_specs>
===============================================================================
B                    Z=   5    Mass=  10.810        Charge= 0.17977+309
Lmxo=1 Lmxkb= 3    BasisType=split      Semic=F
L=0  Nsemic=0  Cnfigmx=2
          n=1  nzeta=2  polorb=0
            splnorm:   0.15000    
               vcte:    0.0000    
               rinn:    0.0000    
                rcs:    0.0000      0.0000    
            lambdas:    1.0000      1.0000    
L=1  Nsemic=0  Cnfigmx=2
          n=1  nzeta=2  polorb=1
            splnorm:   0.15000    
               vcte:    0.0000    
               rinn:    0.0000    
                rcs:    0.0000      0.0000    
            lambdas:    1.0000      1.0000    
-------------------------------------------------------------------------------
L=0  Nkbl=1  erefs: 0.17977+309
L=1  Nkbl=1  erefs: 0.17977+309
L=2  Nkbl=1  erefs: 0.17977+309
L=3  Nkbl=1  erefs: 0.17977+309
===============================================================================
</basis_specs>

atom: Called for B                     (Z =   5)

read_vps: Pseudopotential generation method:
read_vps: ATM3      Troullier-Martins                       
Total valence charge:    3.00000

read_vps: Pseudopotential includes a core correction:
read_vps: Pseudo-core for xc-correction

xc_check: Exchange-correlation functional:
xc_check: GGA Perdew, Burke & Ernzerhof 1996
V l=0 = -2*Zval/r beyond r=  1.7165
V l=1 = -2*Zval/r beyond r=  1.7165
V l=2 = -2*Zval/r beyond r=  1.7165
V l=3 = -2*Zval/r beyond r=  1.6951
All V_l potentials equal beyond r=  1.7165
This should be close to max(r_c) in ps generation
All pots = -2*Zval/r beyond r=  1.7165

VLOCAL1: 99.0% of the norm of Vloc inside     14.733 Ry
VLOCAL1: 99.9% of the norm of Vloc inside     33.577 Ry
atom: Maximum radius for 4*pi*r*r*local-pseudopot. charge    2.04484
atom: Maximum radius for r*vlocal+2*Zval:    1.75994
GHOST: No ghost state for L =  0
GHOST: No ghost state for L =  1
GHOST: No ghost state for L =  2
GHOST: No ghost state for L =  3

KBgen: Kleinman-Bylander projectors: 
   l= 0   rc=  1.897051   el= -0.693730   Ekb=  4.595746   kbcos=  0.286105
   l= 1   rc=  1.920920   el= -0.265236   Ekb= -2.350715   kbcos= -0.315747
   l= 2   rc=  2.044840   el=  0.002055   Ekb= -0.690767   kbcos= -0.013822
   l= 3   rc=  2.149707   el=  0.003188   Ekb= -0.315358   kbcos= -0.002055

KBgen: Total number of  Kleinman-Bylander projectors:   16
atom: -------------------------------------------------------------------------

atom: SANKEY-TYPE ORBITALS:
atom: Selected multiple-zeta basis: split     

SPLIT: Orbitals with angular momentum L= 0

SPLIT: Basis orbitals for state 2s

SPLIT: PAO cut-off radius determined from an
SPLIT: energy shift=  0.007350 Ry

   izeta = 1
                 lambda =    1.000000
                     rc =    5.422032
                 energy =   -0.686029
                kinetic =    0.576707
    potential(screened) =   -1.262736
       potential(ionic) =   -3.271094

   izeta = 2
                 rmatch =    4.222573
              splitnorm =    0.150000
                 energy =   -0.602132
                kinetic =    0.858975
    potential(screened) =   -1.461107
       potential(ionic) =   -3.582536

SPLIT: Orbitals with angular momentum L= 1

SPLIT: Basis orbitals for state 2p

SPLIT: PAO cut-off radius determined from an
SPLIT: energy shift=  0.007350 Ry

   izeta = 1
                 lambda =    1.000000
                     rc =    6.790259
                 energy =   -0.258578
                kinetic =    1.481412
    potential(screened) =   -1.739989
       potential(ionic) =   -3.657461

   izeta = 2
                 rmatch =    4.608740
              splitnorm =    0.150000
                 energy =   -0.173757
                kinetic =    2.186690
    potential(screened) =   -2.360447
       potential(ionic) =   -4.464260

POLgen: Perturbative polarization orbital with L=  2

POLgen: Polarization orbital for state 2p

   izeta = 1
                     rc =    6.790259
                 energy =    0.684082
                kinetic =    1.471481
    potential(screened) =   -0.787399
       potential(ionic) =   -2.406985
atom: Total number of Sankey-type orbitals: 13

atm_pop: Valence configuration (for local Pseudopot. screening):
 2s( 2.00)                                                            
 2p( 1.00)                                                            
Vna: chval, zval:    3.00000   3.00000

Vna:  Cut-off radius for the neutral-atom potential:   6.790259
comcore: Pseudo-core radius Rcore=  2.122997

atom: _________________________________________________________________________

<basis_specs>
===============================================================================
C                    Z=   6    Mass=  12.010        Charge= 0.17977+309
Lmxo=1 Lmxkb= 3    BasisType=split      Semic=F
L=0  Nsemic=0  Cnfigmx=2
          n=1  nzeta=2  polorb=0
            splnorm:   0.15000    
               vcte:    0.0000    
               rinn:    0.0000    
                rcs:    0.0000      0.0000    
            lambdas:    1.0000      1.0000    
L=1  Nsemic=0  Cnfigmx=2
          n=1  nzeta=2  polorb=1
            splnorm:   0.15000    
               vcte:    0.0000    
               rinn:    0.0000    
                rcs:    0.0000      0.0000    
            lambdas:    1.0000      1.0000    
-------------------------------------------------------------------------------
L=0  Nkbl=1  erefs: 0.17977+309
L=1  Nkbl=1  erefs: 0.17977+309
L=2  Nkbl=1  erefs: 0.17977+309
L=3  Nkbl=1  erefs: 0.17977+309
===============================================================================
</basis_specs>

atom: Called for C                     (Z =   6)

read_vps: Pseudopotential generation method:
read_vps: ATM3      Troullier-Martins                       
Total valence charge:    4.00000

read_vps: Pseudopotential includes a core correction:
read_vps: Pseudo-core for xc-correction

xc_check: Exchange-correlation functional:
xc_check: GGA Perdew, Burke & Ernzerhof 1996
V l=0 = -2*Zval/r beyond r=  1.5227
V l=1 = -2*Zval/r beyond r=  1.5227
V l=2 = -2*Zval/r beyond r=  1.5227
V l=3 = -2*Zval/r beyond r=  1.5038
All V_l potentials equal beyond r=  1.5227
This should be close to max(r_c) in ps generation
All pots = -2*Zval/r beyond r=  1.5227

VLOCAL1: 99.0% of the norm of Vloc inside     18.722 Ry
VLOCAL1: 99.9% of the norm of Vloc inside     42.668 Ry
atom: Maximum radius for 4*pi*r*r*local-pseudopot. charge    1.83678
atom: Maximum radius for r*vlocal+2*Zval:    1.58088
GHOST: No ghost state for L =  0
GHOST: No ghost state for L =  1
GHOST: No ghost state for L =  2
GHOST: No ghost state for L =  3

KBgen: Kleinman-Bylander projectors: 
   l= 0   rc=  1.704034   el= -1.009801   Ekb=  5.335044   kbcos=  0.316824
   l= 1   rc=  1.704034   el= -0.388707   Ekb= -3.785862   kbcos= -0.366464
   l= 2   rc=  1.791422   el=  0.001971   Ekb= -0.970471   kbcos= -0.009212
   l= 3   rc=  1.859892   el=  0.003065   Ekb= -0.399525   kbcos= -0.001223

KBgen: Total number of  Kleinman-Bylander projectors:   16
atom: -------------------------------------------------------------------------

atom: SANKEY-TYPE ORBITALS:
atom: Selected multiple-zeta basis: split     

SPLIT: Orbitals with angular momentum L= 0

SPLIT: Basis orbitals for state 2s

SPLIT: PAO cut-off radius determined from an
SPLIT: energy shift=  0.007350 Ry

   izeta = 1
                 lambda =    1.000000
                     rc =    4.632753
                 energy =   -1.002270
                kinetic =    0.855760
    potential(screened) =   -1.858031
       potential(ionic) =   -5.417575

   izeta = 2
                 rmatch =    3.431921
              splitnorm =    0.150000
                 energy =   -0.867111
                kinetic =    1.300804
    potential(screened) =   -2.167915
       potential(ionic) =   -5.962684

SPLIT: Orbitals with angular momentum L= 1

SPLIT: Basis orbitals for state 2p

SPLIT: PAO cut-off radius determined from an
SPLIT: energy shift=  0.007350 Ry

   izeta = 1
                 lambda =    1.000000
                     rc =    5.658549
                 energy =   -0.381140
                kinetic =    2.399701
    potential(screened) =   -2.780841
       potential(ionic) =   -6.206085

   izeta = 2
                 rmatch =    3.653288
              splitnorm =    0.150000
                 energy =   -0.249149
                kinetic =    3.542762
    potential(screened) =   -3.791911
       potential(ionic) =   -7.581078

POLgen: Perturbative polarization orbital with L=  2

POLgen: Polarization orbital for state 2p

   izeta = 1
                     rc =    5.658549
                 energy =    1.109913
                kinetic =    2.304789
    potential(screened) =   -1.194876
       potential(ionic) =   -4.013592
atom: Total number of Sankey-type orbitals: 13

atm_pop: Valence configuration (for local Pseudopot. screening):
 2s( 2.00)                                                            
 2p( 2.00)                                                            
Vna: chval, zval:    4.00000   4.00000

Vna:  Cut-off radius for the neutral-atom potential:   5.658549
comcore: Pseudo-core radius Rcore=  1.791422

atom: _________________________________________________________________________

prinput: Basis input ----------------------------------------------------------

PAO.BasisType split     

%block ChemicalSpeciesLabel
    1    5 B                       # Species index, atomic number, species label
    2    6 C                       # Species index, atomic number, species label
%endblock ChemicalSpeciesLabel

%block PAO.Basis                 # Define Basis set
B                     2                    # Species label, number of l-shells
 n=2   0   2                         # n, l, Nzeta 
   5.422      4.223   
   1.000      1.000   
 n=2   1   2 P   1                   # n, l, Nzeta, Polarization, NzetaPol
   6.790      4.609   
   1.000      1.000   
C                     2                    # Species label, number of l-shells
 n=2   0   2                         # n, l, Nzeta 
   4.633      3.432   
   1.000      1.000   
 n=2   1   2 P   1                   # n, l, Nzeta, Polarization, NzetaPol
   5.659      3.653   
   1.000      1.000   
%endblock PAO.Basis

prinput: ----------------------------------------------------------------------

coor:   Atomic-coordinates input format  =     Fractional

siesta: Atomic coordinates (Bohr) and species
siesta:      6.95932  30.82560   0.00000  1        1
siesta:      9.28770  26.79272   0.00000  1        2
siesta:      9.28770  29.48119   0.00000  1        3
siesta:      4.63094  10.66124   0.00000  1        4
siesta:      4.63094  13.34970   0.00000  1        5
siesta:     11.61608  25.44831   0.00000  1        6
siesta:      2.30256  14.69411   0.00000  1        7
siesta:      2.30256  17.38257   0.00000  1        8
siesta:      4.63094  18.72698   0.00000  1        9
siesta:      4.63094  21.41544   0.00000  1       10
siesta:     -0.02582  18.72698   0.00000  1       11
siesta:     -0.02582  21.41544   0.00000  1       12
siesta:      2.30256  22.75985   0.00000  1       13
siesta:      2.30256  25.44831   0.00000  1       14
siesta:     -2.35420  22.75985   0.00000  1       15
siesta:     -7.01096  25.44831   0.00000  1       16
siesta:     -9.33934  26.79272   0.00000  1       17
siesta:      4.63094  26.79272   0.00000  1       18
siesta:      4.63094  29.48119   0.00000  1       19
siesta:     -0.02582   2.59549   0.00000  2       20
siesta:     -0.02582   5.28395   0.00000  2       21
siesta:     -2.35420  38.89134   0.00000  2       22
siesta:     -2.35420  41.57980   0.00000  2       23
siesta:      2.30256  38.89134   0.00000  2       24
siesta:      2.30256  41.57980   0.00000  2       25
siesta:      4.63094  34.85847   0.00000  2       26
siesta:      4.63094  37.54693   0.00000  2       27
siesta:      6.95932  33.51406   0.00000  2       28
siesta:     -4.68258  34.85847   0.00000  2       29
siesta:     -4.68258  37.54693   0.00000  2       30
siesta:      2.30256   6.62836   0.00000  2       31
siesta:      2.30256   9.31683   0.00000  2       32
siesta:      6.95932  14.69411   0.00000  2       33
siesta:      6.95932  17.38257   0.00000  2       34
siesta:      9.28770  18.72698   0.00000  2       35
siesta:      9.28770  21.41544   0.00000  2       36
siesta:     11.61608  22.75985   0.00000  2       37
siesta:     -2.35420   6.62836   0.00000  2       38
siesta:     -2.35420   9.31683   0.00000  2       39
siesta:     -0.02582  10.66124   0.00000  2       40
siesta:     -0.02582  13.34970   0.00000  2       41
siesta:      6.95932  22.75985   0.00000  2       42
siesta:      6.95932  25.44831   0.00000  2       43
siesta:     -4.68258  10.66124   0.00000  2       44
siesta:     -4.68258  13.34970   0.00000  2       45
siesta:     -2.35420  14.69411   0.00000  2       46
siesta:     -2.35420  17.38257   0.00000  2       47
siesta:     -7.01096  14.69411   0.00000  2       48
siesta:     -7.01096  17.38257   0.00000  2       49
siesta:     -4.68258  18.72698   0.00000  2       50
siesta:     -4.68258  21.41544   0.00000  2       51
siesta:     -2.35420  25.44831   0.00000  2       52
siesta:     -9.33934  18.72698   0.00000  2       53
siesta:     -9.33934  21.41544   0.00000  2       54
siesta:     -7.01096  22.75985   0.00000  2       55
siesta:    -11.66772  22.75985   0.00000  2       56
siesta:    -11.66772  25.44831   0.00000  2       57
siesta:     -9.33934  29.48119   0.00000  2       58
siesta:     -0.02582  26.79272   0.00000  2       59
siesta:     -0.02582  29.48119   0.00000  2       60
siesta:     -4.68258  26.79272   0.00000  2       61
siesta:     -4.68258  29.48119   0.00000  2       62
siesta:      2.30256  30.82560   0.00000  2       63
siesta:      2.30256  33.51406   0.00000  2       64
siesta:     -2.35420  30.82560   0.00000  2       65
siesta:     -2.35420  33.51406   0.00000  2       66
siesta:     -7.01096  30.82560   0.00000  2       67
siesta:     -7.01096  33.51406   0.00000  2       68
siesta:     -0.02582  34.85847   0.00000  2       69
siesta:     -0.02582  37.54693   0.00000  2       70
siesta:     -0.02582  42.92421   0.00000  2       71
siesta:     -0.02582  45.61267   0.00000  2       72

siesta: System type = slab      

initatomlists: Number of atoms, orbitals, and projectors:     72   936  1152

siesta: ******************** Simulation parameters ****************************
siesta:
siesta: The following are some of the parameters of the simulation.
siesta: A complete list of the parameters used, including default values,
siesta: can be found in file out.fdf
siesta:
redata: Non-Collinear-spin run           =     F
redata: SpinPolarized (Up/Down) run      =     F
redata: Number of spin components        =     1
redata: Long output                      =     F
redata: Number of Atomic Species         =        2
redata: Charge density info will appear in .RHO file
redata: Write Mulliken Pop.              =     NO
redata: Mesh Cutoff                      =   200.0000  Ry
redata: Net charge of the system         =     0.0000 |e|
redata: Max. number of SCF Iter          =      500
redata: SCF convergence failure will abort job
redata: Performing Pulay mixing using    =    10 iterations
redata: Mix DM in first SCF step ?       =     F
redata: Write Pulay info on disk?        =     F
redata: Discard 1st Pulay DM after  kick =     F
redata: New DM Mixing Weight             =     0.0500
redata: New DM Occupancy tolerance       = 0.000000000001
redata: No kicks to SCF
redata: DM Mixing Weight for Kicks       =     0.5000
redata: DM Tolerance for SCF             =     0.000100
redata: Require Energy convergence for SCF =     F
redata: DM Energy tolerance for SCF      =     0.000100 eV
redata: Require Harris convergence for SCF =     F
redata: DM Harris energy tolerance for SCF =     0.000100 eV
redata: Using Saved Data (generic)   =     F
redata: Use continuation files for DM    =     T
redata: Neglect nonoverlap interactions  =     F
redata: Method of Calculation            =     Diagonalization
redata: Divide and Conquer               =     T
redata: Electronic Temperature           =     0.0019  Ry
redata: Fix the spin of the system       =     F
redata: Dynamics option                  =     Verlet MD run
redata: Initial MD time step             =        1
redata:   Final MD time step             =        1
redata: Length of MD time step           =     1.0000  fs
redata: Initial Temperature of MD run    =     0.0000  K
redata: Perform a MD quench              =     F
redata: ***********************************************************************
Total number of electrons:   269.000000
Total ionic charge:   269.000000

* ProcessorY, Blocksize:    2  24

k-point displ. along   1 input, could be:     0.50    0.00
k-point displ. along   2 input, could be:     0.50    0.00
 Kpoints in:          231 . Kpoints trimmed:          231

siesta: k-grid: Number of k-points =   231
siesta: k-grid: Cutoff (effective) =     5.000 Ang
siesta: k-grid: Supercell and displacements
siesta: k-grid:   21   0   0      0.500
siesta: k-grid:    0  21   0      0.500
siesta: k-grid:    0   0   1      0.000
Naive supercell factors:     2    2    2

superc: Internal auxiliary supercell:     2 x     2 x     2  =       8
superc: Number of atoms, orbitals, and projectors:    576   7488   9216

* Maximum dynamic memory allocated =     4 MB

siesta:                 ==============================
                            Begin MD step =      1
                        ==============================

superc: Internal auxiliary supercell:     2 x     2 x     2  =       8
superc: Number of atoms, orbitals, and projectors:    576   7488   9216

outcell: Unit cell vectors (Ang):
       12.804619    7.392750    0.000000
        0.000000   14.785500    0.000000
        0.000000    0.000000   10.000000

outcell: Cell vector modules (Ang)   :   14.785500   14.785500   10.000000
outcell: Cell angles (23,13,12) (deg):     90.0000     90.0000     60.0000
outcell: Cell volume (Ang**3)        :   1893.2269
New_DM. Step:     1
Initializing Density Matrix...

InitMesh: MESH =   120 x   120 x    90 =     1296000
InitMesh: Mesh cutoff (required, used) =   200.000   223.865 Ry

* Maximum dynamic memory allocated =   218 MB

stepf: Fermi-Dirac step function

siesta: Program's energy decomposition (eV):
siesta: Ebs     =     -5549.774125
siesta: Eions   =     15969.933558
siesta: Ena     =      4258.485860
siesta: Ekin    =      5376.155659
siesta: Enl     =       790.802812
siesta: DEna    =        -0.000009
siesta: DUscf   =         0.000000
siesta: DUext   =         0.000000
siesta: Exc     =     -4202.681392
siesta: eta*DQ  =         0.000000
siesta: Emadel  =         0.000000
siesta: Emeta   =         0.000000
siesta: Emolmec =         0.000000
siesta: Ekinion =         0.000000
siesta: Eharris =     -9459.135142
siesta: Etot    =     -9747.170627
siesta: FreeEng =     -9747.170627

siesta: iscf   Eharris(eV)      E_KS(eV)   FreeEng(eV)   dDmax  Ef(eV)
siesta:    1    -9459.1351    -9747.1706    -9747.1706  6.4933 -8.4066
timer: Routine,Calls,Time,% = IterSCF        1    4473.007  99.74
elaps: Routine,Calls,Wall,% = IterSCF        1     559.821  99.74
siesta:    2   -13525.0821    -8782.3604    -8782.4384 23.1593 -3.2638
siesta:    3    -9399.0380    -9586.8872    -9586.9206  3.0506 -6.6245
siesta:    4    -9379.2329    -9465.2125    -9465.2816  1.3772 -5.6221
siesta:    5    -9332.9167    -9412.2041    -9412.2471  0.9101 -5.6825
siesta:    6    -9319.1668    -9356.6553    -9356.7273  0.7414 -5.2655
siesta:    7    -9311.8545    -9343.5925    -9343.6361  0.7361 -5.2600
siesta:    8    -9308.3788    -9329.6090    -9329.6667  0.6775 -5.2778
siesta:    9    -9307.2967    -9322.8723    -9322.9208  0.6420 -5.2445
siesta:   10    -9310.0824    -9306.5159    -9306.5686  0.4431 -5.1550
siesta:   11    -9307.6513    -9299.8306    -9299.8807  0.3885 -5.1714
siesta:   12    -9306.2325    -9290.3636    -9290.4328  0.2144 -5.1314
siesta:   13    -9306.2939    -9282.5302    -9282.5925  0.1952 -5.0923
siesta:   14    -9306.0544    -9283.0233    -9283.0768  0.1915 -5.0953
siesta:   15    -9305.4999    -9285.7206    -9285.7791  0.1478 -5.1183
siesta:   16    -9305.3064    -9290.2154    -9290.2713  0.1435 -5.1223
siesta:   17    -9305.1573    -9293.0172    -9293.0693  0.1061 -5.1537
siesta:   18    -9305.0669    -9297.1261    -9297.1880  0.0594 -5.1794
siesta:   19    -9305.0462    -9300.9232    -9300.9887  0.0619 -5.1960
siesta:   20    -9305.0359    -9303.7983    -9303.8611  0.0466 -5.2060
siesta:   21    -9305.0330    -9305.4516    -9305.5167  0.0452 -5.2079
siesta:   22    -9305.0226    -9305.2571    -9305.3205  0.0489 -5.1996
siesta:   23    -9305.0177    -9305.5199    -9305.5889  0.0404 -5.1894
siesta:   24    -9305.0117    -9306.2840    -9306.3473  0.0130 -5.1838
siesta:   25    -9305.0106    -9306.2674    -9306.3327  0.0091 -5.1781
siesta:   26    -9305.0080    -9306.3522    -9306.4166  0.0078 -5.1771
siesta:   27    -9305.0073    -9306.1653    -9306.2306  0.0060 -5.1760
siesta:   28    -9305.0068    -9305.8656    -9305.9315  0.0038 -5.1762
siesta:   29    -9305.0064    -9305.6618    -9305.7277  0.0029 -5.1769
siesta:   30    -9305.0065    -9305.6801    -9305.7464  0.0025 -5.1778
siesta:   31    -9305.0068    -9305.6029    -9305.6690  0.0020 -5.1787
siesta:   32    -9305.0067    -9305.1737    -9305.2394  0.0007 -5.1785
siesta:   33    -9305.0066    -9305.0984    -9305.1643  0.0009 -5.1784
siesta:   34    -9305.0066    -9305.0731    -9305.1390  0.0004 -5.1786
siesta:   35    -9305.0067    -9305.0484    -9305.1143  0.0003 -5.1787
siesta:   36    -9305.0067    -9305.0310    -9305.0968  0.0003 -5.1787
siesta:   37    -9305.0066    -9305.0263    -9305.0922  0.0001 -5.1788
siesta:   38    -9305.0067    -9305.0271    -9305.0930  0.0001 -5.1788
siesta:   39    -9305.0067    -9305.0150    -9305.0809  0.0001 -5.1788

siesta: E_KS(eV) =            -9305.0147

siesta: E_KS - E_eggbox =     -9305.0147

siesta: Atomic forces (eV/Ang):
----------------------------------------
   Tot   -0.244981    0.089797    0.000000
----------------------------------------
   Max  564.573312
   Res  148.657900    sqrt( Sum f_i^2 / 3N )
----------------------------------------
   Max  564.573312    constrained

Stress-tensor-Voigt (kbar):     -811.72    -2733.13       -0.66       12.79        0.00        0.00
(Free)E + p*V (eV/cell)    -7908.5688
Target enthalpy (eV/cell)    -9305.0806

siesta: Stress tensor (static) (eV/Ang**3):
        -0.506629    0.007980    0.000000
         0.007980   -1.705866    0.000000
         0.000000    0.000000   -0.000413

siesta: Pressure (static):       1181.83552964  kBar

siesta: Stress tensor (total) (eV/Ang**3):
        -0.506629    0.007980    0.000000
         0.007980   -1.705866    0.000000
         0.000000    0.000000   -0.000413

siesta: Pressure (total):       1181.83552964  kBar

siesta: Temp_ion =       0.000 K

* Maximum dynamic memory allocated =   235 MB
Computing bands...

siesta: Program's energy decomposition (eV):
siesta: Ebs     =     -4195.341400
siesta: Eions   =     15969.933558
siesta: Ena     =      4258.485860
siesta: Ekin    =      8278.359650
siesta: Enl     =      -810.152394
siesta: DEna    =      -793.822364
siesta: DUscf   =       106.798352
siesta: DUext   =         0.000000
siesta: Exc     =     -4374.750266
siesta: eta*DQ  =         0.000000
siesta: Emadel  =         0.000000
siesta: Emeta   =         0.000000
siesta: Emolmec =         0.000000
siesta: Ekinion =         0.000000
siesta: Eharris =     -9305.006653
siesta: Etot    =     -9305.014721
siesta: FreeEng =     -9305.080586

siesta: Final energy (eV):
siesta:  Band Struct. =   -4195.341400
siesta:       Kinetic =    8278.359650
siesta:       Hartree =   27411.947390
siesta:    Ext. field =       0.000000
siesta:   Exch.-corr. =   -4374.750266
siesta:  Ion-electron =  -62815.637388
siesta:       Ion-ion =   22195.065893
siesta:       Ekinion =       0.000000
siesta:         Total =   -9305.014721

siesta: Atomic forces (eV/Ang):
siesta:      1    3.743730    5.184345    0.000000
siesta:      2   -0.475439   -1.771610    0.000000
siesta:      3    5.222350    2.413625    0.000000
siesta:      4   20.818024  397.413345    0.000000
siesta:      5   19.692112    2.272164    0.000000
siesta:      6    6.844768   -3.220780    0.000000
siesta:      7   20.583394  401.474090    0.000000
siesta:      8   14.385195   -1.106002    0.000000
siesta:      9    1.169478   -3.271290    0.000000
siesta:     10    4.117784    2.746744    0.000000
siesta:     11    0.762188  407.514182    0.000000
siesta:     12   -0.453043   -0.270520    0.000000
siesta:     13    0.485663   -2.576824    0.000000
siesta:     14   -5.523170    4.393251    0.000000
siesta:     15   -3.001341    1.446935    0.000000
siesta:     16    3.819521   -1.921516    0.000000
siesta:     17   -8.255290    4.531852    0.000000
siesta:     18    5.148171   -3.233837    0.000000
siesta:     19   -6.389686    3.023405    0.000000
siesta:     20   -2.255470  550.437659    0.000000
siesta:     21    1.118222 -128.625387    0.000000
siesta:     22   -0.021738  127.062168    0.000000
siesta:     23  -18.579506 -551.095156    0.000000
siesta:     24    4.362090  123.630675    0.000000
siesta:     25   16.428589 -405.822675    0.000000
siesta:     26   26.347408    0.033868    0.000000
siesta:     27   36.633468 -406.212958    0.000000
siesta:     28   -4.304291    4.578333    0.000000
siesta:     29  -26.833683    4.715751    0.000000
siesta:     30  -34.412531 -549.842966    0.000000
siesta:     31   20.437504  549.317065    0.000000
siesta:     32    7.084276 -115.880647    0.000000
siesta:     33   -0.372153    0.925307    0.000000
siesta:     34    7.240969   -2.889416    0.000000
siesta:     35   -0.444547    0.781058    0.000000
siesta:     36    3.712685   -2.010230    0.000000
siesta:     37   -0.278434    0.217195    0.000000
siesta:     38  -13.043316  546.991606    0.000000
siesta:     39    1.677335 -125.363769    0.000000
siesta:     40    2.657397  544.647035    0.000000
siesta:     41    7.181862 -117.474145    0.000000
siesta:     42    1.002056    3.224878    0.000000
siesta:     43    0.137749   -3.852120    0.000000
siesta:     44  -31.746283  548.696297    0.000000
siesta:     45  -25.656543   -4.255278    0.000000
siesta:     46  -25.131079  559.089269    0.000000
siesta:     47  -22.861253   -2.921484    0.000000
siesta:     48    2.222787   -2.126377    0.000000
siesta:     49   -2.102357   -0.300858    0.000000
siesta:     50    1.085716    1.283916    0.000000
siesta:     51   -3.874412   -1.250912    0.000000
siesta:     52   -0.652979    5.063240    0.000000
siesta:     53    0.630934   -0.371842    0.000000
siesta:     54   -2.115923   -2.229468    0.000000
siesta:     55    0.500571   -3.286860    0.000000
siesta:     56   -0.175736    6.092441    0.000000
siesta:     57   -2.252241   -8.600980    0.000000
siesta:     58    2.690554    2.887944    0.000000
siesta:     59   -2.327075    0.703223    0.000000
siesta:     60    0.662695 -564.573312    0.000000
siesta:     61    3.331732    1.627979    0.000000
siesta:     62    1.625921   -1.695498    0.000000
siesta:     63   19.990235    5.489835    0.000000
siesta:     64   20.282750 -558.881159    0.000000
siesta:     65  -22.163859    5.468161    0.000000
siesta:     66  -24.950977 -556.432399    0.000000
siesta:     67   -2.353597    1.327777    0.000000
siesta:     68    2.851078    2.039235    0.000000
siesta:     69   -0.429284  128.328529    0.000000
siesta:     70   -7.882373 -546.679008    0.000000
siesta:     71    5.695613  126.526740    0.000000
siesta:     72   -3.309948 -403.464044    0.000000
siesta: ----------------------------------------
siesta:    Tot   -0.244981    0.089797    0.000000

siesta: Stress tensor (static) (eV/Ang**3):
siesta:    -0.506629    0.007980    0.000000
siesta:     0.007980   -1.705866    0.000000
siesta:     0.000000    0.000000   -0.000413

siesta: Cell volume =       1893.226884 Ang**3

siesta: Pressure (static):
siesta:                Solid            Molecule  Units
siesta:           0.00803380          0.11402172  Ry/Bohr**3
siesta:           0.73763575         10.46908659  eV/Ang**3
siesta:        1181.83552964      16773.50721047  kBar
(Free)E+ p_basis*V_orbitals  =       -9268.339855
(Free)Eharris+ p_basis*V_orbitals  =       -9268.331497

siesta: Electric dipole (a.u.)  =    0.000000    0.000000    0.000000
siesta: Electric dipole (Debye) =    0.000000    0.000000    0.000000

* Maximum dynamic memory allocated : Node    0 =   235 MB
* Maximum dynamic memory allocated : Node    1 =    83 MB
* Maximum dynamic memory allocated : Node    2 =    84 MB
* Maximum dynamic memory allocated : Node    3 =   222 MB
* Maximum dynamic memory allocated : Node    4 =   231 MB
* Maximum dynamic memory allocated : Node    5 =    84 MB
* Maximum dynamic memory allocated : Node    6 =    86 MB
* Maximum dynamic memory allocated : Node    7 =   214 MB

* Maximum memory occured during matrixMtoO                    

timer: CPU execution times:
timer:  Routine       Calls   Time/call    Tot.time        %
timer:  siesta            1  172929.020  172929.020   100.00
timer:  Setup             1       3.070       3.070     0.00
timer:  bands             3     269.052     807.157     0.47
timer:  writewave         1       0.020       0.020     0.00
timer:  KSV_init          1       0.001       0.001     0.00
timer:  IterMD            1  172112.935  172112.935    99.53
timer:  hsparse           1       0.393       0.393     0.00
timer:  overlap           1       7.807       7.807     0.00
timer:  IterSCF          39    4407.441  171890.205    99.40
timer:  kinefsm           2       4.077       8.153     0.00
timer:  nlefsm            2      21.755      43.509     0.03
timer:  DHSCF            40     115.782    4631.285     2.68
timer:  DHSCF1            1       0.998       0.998     0.00
timer:  DHSCF2            1      44.051      44.051     0.03
timer:  REORD           322       0.010       3.244     0.00
timer:  POISON           41       2.239      91.783     0.05
timer:  DHSCF3           40     113.544    4541.780     2.63
timer:  rhoofd           40      24.962     998.490     0.58
timer:  cellXC           40       3.484     139.357     0.08
timer:  vmat             40      56.080    2243.216     1.30
timer:  MolMec            2       0.000       0.000     0.00
timer:  diagon           39    4290.530  167330.661    96.76
timer:  c-eigval       9130       6.676   60954.384    35.25
timer:  c-buildHS      9130       0.123    1120.414     0.65
timer:  cdiag         18139       6.879  124775.824    72.15
timer:  cdiag1        18139       0.428    7766.118     4.49
timer:  cdiag2        18139       1.909   34619.643    20.02
timer:  cdiag3        18139       3.938   71435.655    41.31
timer:  cdiag4        18139       0.227    4113.447     2.38
timer:  c-eigvec       9009       7.284   65620.681    37.95
timer:  c-buildD       9009       4.608   41512.637    24.01
timer:  DHSCF4            1      42.324      42.324     0.02
timer:  dfscf             1      39.666      39.666     0.02
timer:  overfsm           1       0.482       0.482     0.00
timer:  optical           1       5.109       5.109     0.00
  

elaps: ELAPSED times:
elaps:  Routine       Calls   Time/call    Tot.time        %
elaps:  siesta            1   21641.505   21641.505   100.00
elaps:  Setup             1       0.382       0.382     0.00
elaps:  bands             3      33.683     101.048     0.47
elaps:  writewave         1       0.003       0.003     0.00
elaps:  KSV_init          1       0.000       0.000     0.00
elaps:  IterMD            1   21539.401   21539.401    99.53
elaps:  hsparse           1       0.051       0.051     0.00
elaps:  overlap           1       0.983       0.983     0.00
elaps:  IterSCF          39     551.578   21511.539    99.40
elaps:  kinefsm           2       0.542       1.085     0.01
elaps:  nlefsm            2       2.838       5.676     0.03
elaps:  DHSCF            40      14.609     584.377     2.70
elaps:  DHSCF1            1       0.124       0.124     0.00
elaps:  DHSCF2            1       5.514       5.514     0.03
elaps:  REORD           322       0.001       0.418     0.00
elaps:  POISON           41       0.281      11.508     0.05
elaps:  DHSCF3           40      14.205     568.204     2.63
elaps:  rhoofd           40       6.400     256.017     1.18
elaps:  cellXC           40       0.435      17.406     0.08
elaps:  vmat             40       7.016     280.622     1.30
elaps:  MolMec            2       0.000       0.000     0.00
elaps:  diagon           39     536.976   20942.050    96.77
elaps:  c-eigval       9130       0.835    7626.409    35.24
elaps:  c-buildHS      9130       0.017     151.885     0.70
elaps:  cdiag         18139       0.848   15376.851    71.05
elaps:  cdiag1        18139       0.053     966.517     4.47
elaps:  cdiag2        18139       0.239    4331.844    20.02
elaps:  cdiag3        18139       0.493    8950.039    41.36
elaps:  cdiag4        18139       0.029     523.721     2.42
elaps:  c-eigvec       9009       0.888    8001.698    36.97
elaps:  c-buildD       9009       0.600    5407.545    24.99
elaps:  DHSCF4            1      10.248      10.248     0.05
elaps:  dfscf             1       9.728       9.728     0.04
elaps:  overfsm           1       0.062       0.062     0.00
elaps:  optical           1       0.000       0.000     0.00
  
>> End of run:  30-APR-2016   5:26:15
