Siesta Version:                                        siesta-3.2-pl-3
Architecture  : x86_64-unknown-linux-gnu--unknown
Compiler flags: mpiifort -g -O2 -fPIC -xSSE4.1 -fp-model source -shared-intel 
PARALLEL version

* Running on    8 nodes in parallel
>> Start of run:  25-APR-2016  12:13:43

                           ***********************       
                           *  WELCOME TO SIESTA  *       
                           ***********************       

reinit: Reading from standard input
************************** Dump of input data file ****************************
#(1) General system descriptors
SystemName            GRP_doping    # Descriptive name of the system
SystemLabel           GRP_doping    # Short name for naming files
%include STRUCT.fdf
%include KPT.fdf
%include BASIS.fdf
#%include TS.fdf # for transiesta calculation
#(4) DFT, Grid, SCF
XC.functional         GGA           # LDA or GGA (default = LDA)
XC.authors            PBE           # CA (Ceperley-Aldr) = PZ
                                    #    (Perdew-Zunger) - LDA - Default
                                    # PW92 (Perdew-Wang-92) - LDA
                                    # PBE (Perdew-Burke-Ernzerhof) - GGA
MeshCutoff            200.000000    Ry      # Default: 50.0 Ry ~ 0.444 Bohr
                                    #         100.0 Ry ~ 0.314 Bohr
MaxSCFIterations      500           # Default: 50
DM.MixingWeight       0.05          # Default: 0.25
DM.NumberPulay        10            # Default: 0
DM.PulayOnFile        F             # SystemLabel.P1, SystemLabel.P2
DM.Tolerance          1.d-4         # Default: 1.d-4
DM.UseSaveDM          .true.        # because of the bug
SCFMustConverge       .true.
NeglNonOverlapInt     F             # Default: F
#(5) Eigenvalue problem: order-N or diagonalization
SolutionMethod        Diagon        # or Transiesta
ElectronicTemperature 300.0 K       # Default: 300.0 K
#(6) Molecular dynamics and relaxations
#MD.TypeOfRun          CG            # Type of dynamics:
#MD.VariableCell       F
#MD.NumCGsteps         0           # 0 for single-point / 100 for gopt
#MD.MaxCGDispl         0.2 Bohr      # Default: 0.2 Bohr
#MD.MaxForceTol        0.02 eV/Ang   # Default: 0.04 eV/Ang
#MD.MaxStressTol       1.0 GPa       # Default: 1.0 GPa
# Geometry Constraints
#%block GeometryConstraints
#	position from 1 to 44
#%endblock GeometryConstraints
BandLinesScale   pi/a
%block BandLines
 1   0.00000000  0.00000000  0.00000000
50   0.00000000  0.07809418  0.00000000
50   0.04509075  0.07809242  0.00000000
20   0.00000000  0.00000000  0.00000000
%endblock BandLines
************************** End of input data file *****************************

reinit: -----------------------------------------------------------------------
reinit: System Name: GRP_doping
reinit: -----------------------------------------------------------------------
reinit: System Label: GRP_doping                                                  
reinit: -----------------------------------------------------------------------

initatom: Reading input for the pseudopotentials and atomic orbitals ----------
 Species number:            1  Label: B Atomic number:           5
 Species number:            2  Label: C Atomic number:           6
Ground state valence configuration:   2s02  2p01
Reading pseudopotential information in formatted form from B.psf

Valence configuration for pseudopotential generation:
2s( 2.00) rc: 1.74
2p( 1.00) rc: 1.74
3d( 0.00) rc: 1.74
4f( 0.00) rc: 1.74
Ground state valence configuration:   2s02  2p02
Reading pseudopotential information in formatted form from C.psf

Valence configuration for pseudopotential generation:
2s( 2.00) rc: 1.54
2p( 2.00) rc: 1.54
3d( 0.00) rc: 1.54
4f( 0.00) rc: 1.54
For B, standard SIESTA heuristics set lmxkb to 3
 (one more than the basis l, including polarization orbitals).
Use PS.lmax or PS.KBprojectors blocks to override.
For C, standard SIESTA heuristics set lmxkb to 3
 (one more than the basis l, including polarization orbitals).
Use PS.lmax or PS.KBprojectors blocks to override.

<basis_specs>
===============================================================================
B                    Z=   5    Mass=  10.810        Charge= 0.17977+309
Lmxo=1 Lmxkb= 3    BasisType=split      Semic=F
L=0  Nsemic=0  Cnfigmx=2
          n=1  nzeta=2  polorb=0
            splnorm:   0.15000    
               vcte:    0.0000    
               rinn:    0.0000    
                rcs:    0.0000      0.0000    
            lambdas:    1.0000      1.0000    
L=1  Nsemic=0  Cnfigmx=2
          n=1  nzeta=2  polorb=1
            splnorm:   0.15000    
               vcte:    0.0000    
               rinn:    0.0000    
                rcs:    0.0000      0.0000    
            lambdas:    1.0000      1.0000    
-------------------------------------------------------------------------------
L=0  Nkbl=1  erefs: 0.17977+309
L=1  Nkbl=1  erefs: 0.17977+309
L=2  Nkbl=1  erefs: 0.17977+309
L=3  Nkbl=1  erefs: 0.17977+309
===============================================================================
</basis_specs>

atom: Called for B                     (Z =   5)

read_vps: Pseudopotential generation method:
read_vps: ATM3      Troullier-Martins                       
Total valence charge:    3.00000

read_vps: Pseudopotential includes a core correction:
read_vps: Pseudo-core for xc-correction

xc_check: Exchange-correlation functional:
xc_check: GGA Perdew, Burke & Ernzerhof 1996
V l=0 = -2*Zval/r beyond r=  1.7165
V l=1 = -2*Zval/r beyond r=  1.7165
V l=2 = -2*Zval/r beyond r=  1.7165
V l=3 = -2*Zval/r beyond r=  1.6951
All V_l potentials equal beyond r=  1.7165
This should be close to max(r_c) in ps generation
All pots = -2*Zval/r beyond r=  1.7165

VLOCAL1: 99.0% of the norm of Vloc inside     14.733 Ry
VLOCAL1: 99.9% of the norm of Vloc inside     33.577 Ry
atom: Maximum radius for 4*pi*r*r*local-pseudopot. charge    2.04484
atom: Maximum radius for r*vlocal+2*Zval:    1.75994
GHOST: No ghost state for L =  0
GHOST: No ghost state for L =  1
GHOST: No ghost state for L =  2
GHOST: No ghost state for L =  3

KBgen: Kleinman-Bylander projectors: 
   l= 0   rc=  1.897051   el= -0.693730   Ekb=  4.595746   kbcos=  0.286105
   l= 1   rc=  1.920920   el= -0.265236   Ekb= -2.350715   kbcos= -0.315747
   l= 2   rc=  2.044840   el=  0.002055   Ekb= -0.690767   kbcos= -0.013822
   l= 3   rc=  2.149707   el=  0.003188   Ekb= -0.315358   kbcos= -0.002055

KBgen: Total number of  Kleinman-Bylander projectors:   16
atom: -------------------------------------------------------------------------

atom: SANKEY-TYPE ORBITALS:
atom: Selected multiple-zeta basis: split     

SPLIT: Orbitals with angular momentum L= 0

SPLIT: Basis orbitals for state 2s

SPLIT: PAO cut-off radius determined from an
SPLIT: energy shift=  0.007350 Ry

   izeta = 1
                 lambda =    1.000000
                     rc =    5.422032
                 energy =   -0.686029
                kinetic =    0.576707
    potential(screened) =   -1.262736
       potential(ionic) =   -3.271094

   izeta = 2
                 rmatch =    4.222573
              splitnorm =    0.150000
                 energy =   -0.602132
                kinetic =    0.858975
    potential(screened) =   -1.461107
       potential(ionic) =   -3.582536

SPLIT: Orbitals with angular momentum L= 1

SPLIT: Basis orbitals for state 2p

SPLIT: PAO cut-off radius determined from an
SPLIT: energy shift=  0.007350 Ry

   izeta = 1
                 lambda =    1.000000
                     rc =    6.790259
                 energy =   -0.258578
                kinetic =    1.481412
    potential(screened) =   -1.739989
       potential(ionic) =   -3.657461

   izeta = 2
                 rmatch =    4.608740
              splitnorm =    0.150000
                 energy =   -0.173757
                kinetic =    2.186690
    potential(screened) =   -2.360447
       potential(ionic) =   -4.464260

POLgen: Perturbative polarization orbital with L=  2

POLgen: Polarization orbital for state 2p

   izeta = 1
                     rc =    6.790259
                 energy =    0.684082
                kinetic =    1.471481
    potential(screened) =   -0.787399
       potential(ionic) =   -2.406985
atom: Total number of Sankey-type orbitals: 13

atm_pop: Valence configuration (for local Pseudopot. screening):
 2s( 2.00)                                                            
 2p( 1.00)                                                            
Vna: chval, zval:    3.00000   3.00000

Vna:  Cut-off radius for the neutral-atom potential:   6.790259
comcore: Pseudo-core radius Rcore=  2.122997

atom: _________________________________________________________________________

<basis_specs>
===============================================================================
C                    Z=   6    Mass=  12.010        Charge= 0.17977+309
Lmxo=1 Lmxkb= 3    BasisType=split      Semic=F
L=0  Nsemic=0  Cnfigmx=2
          n=1  nzeta=2  polorb=0
            splnorm:   0.15000    
               vcte:    0.0000    
               rinn:    0.0000    
                rcs:    0.0000      0.0000    
            lambdas:    1.0000      1.0000    
L=1  Nsemic=0  Cnfigmx=2
          n=1  nzeta=2  polorb=1
            splnorm:   0.15000    
               vcte:    0.0000    
               rinn:    0.0000    
                rcs:    0.0000      0.0000    
            lambdas:    1.0000      1.0000    
-------------------------------------------------------------------------------
L=0  Nkbl=1  erefs: 0.17977+309
L=1  Nkbl=1  erefs: 0.17977+309
L=2  Nkbl=1  erefs: 0.17977+309
L=3  Nkbl=1  erefs: 0.17977+309
===============================================================================
</basis_specs>

atom: Called for C                     (Z =   6)

read_vps: Pseudopotential generation method:
read_vps: ATM3      Troullier-Martins                       
Total valence charge:    4.00000

read_vps: Pseudopotential includes a core correction:
read_vps: Pseudo-core for xc-correction

xc_check: Exchange-correlation functional:
xc_check: GGA Perdew, Burke & Ernzerhof 1996
V l=0 = -2*Zval/r beyond r=  1.5227
V l=1 = -2*Zval/r beyond r=  1.5227
V l=2 = -2*Zval/r beyond r=  1.5227
V l=3 = -2*Zval/r beyond r=  1.5038
All V_l potentials equal beyond r=  1.5227
This should be close to max(r_c) in ps generation
All pots = -2*Zval/r beyond r=  1.5227

VLOCAL1: 99.0% of the norm of Vloc inside     18.722 Ry
VLOCAL1: 99.9% of the norm of Vloc inside     42.668 Ry
atom: Maximum radius for 4*pi*r*r*local-pseudopot. charge    1.83678
atom: Maximum radius for r*vlocal+2*Zval:    1.58088
GHOST: No ghost state for L =  0
GHOST: No ghost state for L =  1
GHOST: No ghost state for L =  2
GHOST: No ghost state for L =  3

KBgen: Kleinman-Bylander projectors: 
   l= 0   rc=  1.704034   el= -1.009801   Ekb=  5.335044   kbcos=  0.316824
   l= 1   rc=  1.704034   el= -0.388707   Ekb= -3.785862   kbcos= -0.366464
   l= 2   rc=  1.791422   el=  0.001971   Ekb= -0.970471   kbcos= -0.009212
   l= 3   rc=  1.859892   el=  0.003065   Ekb= -0.399525   kbcos= -0.001223

KBgen: Total number of  Kleinman-Bylander projectors:   16
atom: -------------------------------------------------------------------------

atom: SANKEY-TYPE ORBITALS:
atom: Selected multiple-zeta basis: split     

SPLIT: Orbitals with angular momentum L= 0

SPLIT: Basis orbitals for state 2s

SPLIT: PAO cut-off radius determined from an
SPLIT: energy shift=  0.007350 Ry

   izeta = 1
                 lambda =    1.000000
                     rc =    4.632753
                 energy =   -1.002270
                kinetic =    0.855760
    potential(screened) =   -1.858031
       potential(ionic) =   -5.417575

   izeta = 2
                 rmatch =    3.431921
              splitnorm =    0.150000
                 energy =   -0.867111
                kinetic =    1.300804
    potential(screened) =   -2.167915
       potential(ionic) =   -5.962684

SPLIT: Orbitals with angular momentum L= 1

SPLIT: Basis orbitals for state 2p

SPLIT: PAO cut-off radius determined from an
SPLIT: energy shift=  0.007350 Ry

   izeta = 1
                 lambda =    1.000000
                     rc =    5.658549
                 energy =   -0.381140
                kinetic =    2.399701
    potential(screened) =   -2.780841
       potential(ionic) =   -6.206085

   izeta = 2
                 rmatch =    3.653288
              splitnorm =    0.150000
                 energy =   -0.249149
                kinetic =    3.542762
    potential(screened) =   -3.791911
       potential(ionic) =   -7.581078

POLgen: Perturbative polarization orbital with L=  2

POLgen: Polarization orbital for state 2p

   izeta = 1
                     rc =    5.658549
                 energy =    1.109913
                kinetic =    2.304789
    potential(screened) =   -1.194876
       potential(ionic) =   -4.013592
atom: Total number of Sankey-type orbitals: 13

atm_pop: Valence configuration (for local Pseudopot. screening):
 2s( 2.00)                                                            
 2p( 2.00)                                                            
Vna: chval, zval:    4.00000   4.00000

Vna:  Cut-off radius for the neutral-atom potential:   5.658549
comcore: Pseudo-core radius Rcore=  1.791422

atom: _________________________________________________________________________

prinput: Basis input ----------------------------------------------------------

PAO.BasisType split     

%block ChemicalSpeciesLabel
    1    5 B                       # Species index, atomic number, species label
    2    6 C                       # Species index, atomic number, species label
%endblock ChemicalSpeciesLabel

%block PAO.Basis                 # Define Basis set
B                     2                    # Species label, number of l-shells
 n=2   0   2                         # n, l, Nzeta 
   5.422      4.223   
   1.000      1.000   
 n=2   1   2 P   1                   # n, l, Nzeta, Polarization, NzetaPol
   6.790      4.609   
   1.000      1.000   
C                     2                    # Species label, number of l-shells
 n=2   0   2                         # n, l, Nzeta 
   4.633      3.432   
   1.000      1.000   
 n=2   1   2 P   1                   # n, l, Nzeta, Polarization, NzetaPol
   5.659      3.653   
   1.000      1.000   
%endblock PAO.Basis

prinput: ----------------------------------------------------------------------

coor:   Atomic-coordinates input format  =     Fractional

siesta: Atomic coordinates (Bohr) and species
siesta:     -2.35420  38.89134   0.00000  1        1
siesta:      2.30256  38.89134   0.00000  1        2
siesta:      4.63094  34.85847   0.00000  1        3
siesta:      4.63094  37.54693   0.00000  1        4
siesta:      6.95932  33.51406   0.00000  1        5
siesta:     -4.68258  34.85847   0.00000  1        6
siesta:     -4.68258  37.54693   0.00000  1        7
siesta:     -2.35420  17.38257   0.00000  1        8
siesta:     -0.02582  18.72698   0.00000  1        9
siesta:     -4.68258  18.72698   0.00000  1       10
siesta:     -4.68258  21.41544   0.00000  1       11
siesta:     -7.01096  22.75985   0.00000  1       12
siesta:     -7.01096  25.44831   0.00000  1       13
siesta:     -9.33934  29.48119   0.00000  1       14
siesta:     -4.68258  26.79272   0.00000  1       15
siesta:     -4.68258  29.48119   0.00000  1       16
siesta:     -2.35420  30.82560   0.00000  1       17
siesta:     -2.35420  33.51406   0.00000  1       18
siesta:     -7.01096  30.82560   0.00000  1       19
siesta:     -7.01096  33.51406   0.00000  1       20
siesta:     -0.02582  34.85847   0.00000  1       21
siesta:     -0.02582  37.54693   0.00000  1       22
siesta:     -0.02582   2.59549   0.00000  2       23
siesta:     -0.02582   5.28395   0.00000  2       24
siesta:     -2.35420  41.57980   0.00000  2       25
siesta:      2.30256  41.57980   0.00000  2       26
siesta:      6.95932  30.82560   0.00000  2       27
siesta:      9.28770  26.79272   0.00000  2       28
siesta:      9.28770  29.48119   0.00000  2       29
siesta:      2.30256   6.62836   0.00000  2       30
siesta:      2.30256   9.31683   0.00000  2       31
siesta:      4.63094  10.66124   0.00000  2       32
siesta:      4.63094  13.34970   0.00000  2       33
siesta:      6.95932  14.69411   0.00000  2       34
siesta:      6.95932  17.38257   0.00000  2       35
siesta:      9.28770  18.72698   0.00000  2       36
siesta:      9.28770  21.41544   0.00000  2       37
siesta:     11.61608  22.75985   0.00000  2       38
siesta:     11.61608  25.44831   0.00000  2       39
siesta:     -2.35420   6.62836   0.00000  2       40
siesta:     -2.35420   9.31683   0.00000  2       41
siesta:     -0.02582  10.66124   0.00000  2       42
siesta:     -0.02582  13.34970   0.00000  2       43
siesta:      2.30256  14.69411   0.00000  2       44
siesta:      2.30256  17.38257   0.00000  2       45
siesta:      4.63094  18.72698   0.00000  2       46
siesta:      4.63094  21.41544   0.00000  2       47
siesta:      6.95932  22.75985   0.00000  2       48
siesta:      6.95932  25.44831   0.00000  2       49
siesta:     -4.68258  10.66124   0.00000  2       50
siesta:     -4.68258  13.34970   0.00000  2       51
siesta:     -2.35420  14.69411   0.00000  2       52
siesta:     -0.02582  21.41544   0.00000  2       53
siesta:      2.30256  22.75985   0.00000  2       54
siesta:      2.30256  25.44831   0.00000  2       55
siesta:     -7.01096  14.69411   0.00000  2       56
siesta:     -7.01096  17.38257   0.00000  2       57
siesta:     -2.35420  22.75985   0.00000  2       58
siesta:     -2.35420  25.44831   0.00000  2       59
siesta:     -9.33934  18.72698   0.00000  2       60
siesta:     -9.33934  21.41544   0.00000  2       61
siesta:    -11.66772  22.75985   0.00000  2       62
siesta:    -11.66772  25.44831   0.00000  2       63
siesta:     -9.33934  26.79272   0.00000  2       64
siesta:      4.63094  26.79272   0.00000  2       65
siesta:      4.63094  29.48119   0.00000  2       66
siesta:     -0.02582  26.79272   0.00000  2       67
siesta:     -0.02582  29.48119   0.00000  2       68
siesta:      2.30256  30.82560   0.00000  2       69
siesta:      2.30256  33.51406   0.00000  2       70
siesta:     -0.02582  42.92421   0.00000  2       71
siesta:     -0.02582  45.61267   0.00000  2       72

siesta: System type = slab      

initatomlists: Number of atoms, orbitals, and projectors:     72   936  1152

siesta: ******************** Simulation parameters ****************************
siesta:
siesta: The following are some of the parameters of the simulation.
siesta: A complete list of the parameters used, including default values,
siesta: can be found in file out.fdf
siesta:
redata: Non-Collinear-spin run           =     F
redata: SpinPolarized (Up/Down) run      =     F
redata: Number of spin components        =     1
redata: Long output                      =     F
redata: Number of Atomic Species         =        2
redata: Charge density info will appear in .RHO file
redata: Write Mulliken Pop.              =     NO
redata: Mesh Cutoff                      =   200.0000  Ry
redata: Net charge of the system         =     0.0000 |e|
redata: Max. number of SCF Iter          =      500
redata: SCF convergence failure will abort job
redata: Performing Pulay mixing using    =    10 iterations
redata: Mix DM in first SCF step ?       =     F
redata: Write Pulay info on disk?        =     F
redata: Discard 1st Pulay DM after  kick =     F
redata: New DM Mixing Weight             =     0.0500
redata: New DM Occupancy tolerance       = 0.000000000001
redata: No kicks to SCF
redata: DM Mixing Weight for Kicks       =     0.5000
redata: DM Tolerance for SCF             =     0.000100
redata: Require Energy convergence for SCF =     F
redata: DM Energy tolerance for SCF      =     0.000100 eV
redata: Require Harris convergence for SCF =     F
redata: DM Harris energy tolerance for SCF =     0.000100 eV
redata: Using Saved Data (generic)   =     F
redata: Use continuation files for DM    =     T
redata: Neglect nonoverlap interactions  =     F
redata: Method of Calculation            =     Diagonalization
redata: Divide and Conquer               =     T
redata: Electronic Temperature           =     0.0019  Ry
redata: Fix the spin of the system       =     F
redata: Dynamics option                  =     Verlet MD run
redata: Initial MD time step             =        1
redata:   Final MD time step             =        1
redata: Length of MD time step           =     1.0000  fs
redata: Initial Temperature of MD run    =     0.0000  K
redata: Perform a MD quench              =     F
redata: ***********************************************************************
Total number of electrons:   266.000000
Total ionic charge:   266.000000

* ProcessorY, Blocksize:    2  24

k-point displ. along   1 input, could be:     0.50    0.00
k-point displ. along   2 input, could be:     0.50    0.00
 Kpoints in:          231 . Kpoints trimmed:          231

siesta: k-grid: Number of k-points =   231
siesta: k-grid: Cutoff (effective) =     5.000 Ang
siesta: k-grid: Supercell and displacements
siesta: k-grid:   21   0   0      0.500
siesta: k-grid:    0  21   0      0.500
siesta: k-grid:    0   0   1      0.000
Naive supercell factors:     2    2    2

superc: Internal auxiliary supercell:     2 x     2 x     2  =       8
superc: Number of atoms, orbitals, and projectors:    576   7488   9216

* Maximum dynamic memory allocated =     4 MB

siesta:                 ==============================
                            Begin MD step =      1
                        ==============================

superc: Internal auxiliary supercell:     2 x     2 x     2  =       8
superc: Number of atoms, orbitals, and projectors:    576   7488   9216

outcell: Unit cell vectors (Ang):
       12.804619    7.392750    0.000000
        0.000000   14.785500    0.000000
        0.000000    0.000000   10.000000

outcell: Cell vector modules (Ang)   :   14.785500   14.785500   10.000000
outcell: Cell angles (23,13,12) (deg):     90.0000     90.0000     60.0000
outcell: Cell volume (Ang**3)        :   1893.2269
New_DM. Step:     1
Initializing Density Matrix...

InitMesh: MESH =   120 x   120 x    90 =     1296000
InitMesh: Mesh cutoff (required, used) =   200.000   223.865 Ry

* Maximum dynamic memory allocated =   235 MB

stepf: Fermi-Dirac step function

siesta: Program's energy decomposition (eV):
siesta: Ebs     =     -5494.543252
siesta: Eions   =     15585.763425
siesta: Ena     =      4194.530486
siesta: Ekin    =      5217.942150
siesta: Enl     =       832.313784
siesta: DEna    =        -0.000007
siesta: DUscf   =         0.000000
siesta: DUext   =         0.000000
siesta: Exc     =     -4196.667628
siesta: eta*DQ  =         0.000000
siesta: Emadel  =         0.000000
siesta: Emeta   =         0.000000
siesta: Emolmec =         0.000000
siesta: Ekinion =         0.000000
siesta: Eharris =     -9350.076362
siesta: Etot    =     -9537.644639
siesta: FreeEng =     -9537.644639

siesta: iscf   Eharris(eV)      E_KS(eV)   FreeEng(eV)   dDmax  Ef(eV)
siesta:    1    -9350.0764    -9537.6446    -9537.6446  7.3303 -8.4127
timer: Routine,Calls,Time,% = IterSCF        1    4458.599  99.72
elaps: Routine,Calls,Wall,% = IterSCF        1     558.075  99.71
siesta:    2   -15508.9232    -8392.4034    -8392.4793 18.6769 -6.3913
siesta:    3    -9393.0376    -9360.0680    -9360.0963  2.3943 -5.7521
siesta:    4    -9320.4776    -9286.2846    -9286.2880  1.5791 -5.2644
siesta:    5    -9240.8203    -9212.6390    -9212.7093  1.3243 -5.1285
siesta:    6    -9203.5598    -9181.6898    -9181.7377  1.2226 -4.9885
siesta:    7    -9190.9629    -9164.6695    -9164.7281  0.9186 -5.2244
siesta:    8    -9188.7150    -9156.7827    -9156.8303  0.9604 -5.1019
siesta:    9    -9187.2728    -9155.6353    -9155.6634  0.8819 -5.1083
siesta:   10    -9184.8494    -9154.3014    -9154.3306  0.6763 -5.1530
siesta:   11    -9184.4221    -9151.7062    -9151.7420  0.5680 -5.1297
siesta:   12    -9184.4867    -9153.1454    -9153.1998  0.6901 -5.0098
siesta:   13    -9184.2048    -9155.0831    -9155.1268  0.2844 -5.0781
siesta:   14    -9184.0551    -9158.0146    -9158.0577  0.3002 -5.1140
siesta:   15    -9183.3739    -9164.2257    -9164.2671  0.3267 -5.1276
siesta:   16    -9183.2535    -9170.7279    -9170.7718  0.2365 -5.1457
siesta:   17    -9183.2691    -9172.4992    -9172.5405  0.1362 -5.1581
siesta:   18    -9183.0420    -9175.0379    -9175.0764  0.0767 -5.1746
siesta:   19    -9182.9561    -9179.7641    -9179.8114  0.0460 -5.2012
siesta:   20    -9182.9310    -9181.9045    -9181.9547  0.0470 -5.2234
siesta:   21    -9182.9163    -9182.8359    -9182.8815  0.0292 -5.2162
siesta:   22    -9182.9157    -9183.0998    -9183.1495  0.0455 -5.2116
siesta:   23    -9182.9134    -9184.2179    -9184.2674  0.0167 -5.1999
siesta:   24    -9182.9057    -9184.3797    -9184.4274  0.0160 -5.1930
siesta:   25    -9182.9060    -9184.3241    -9184.3747  0.0115 -5.1919
siesta:   26    -9182.9054    -9184.0002    -9184.0494  0.0066 -5.1882
siesta:   27    -9182.9045    -9183.6909    -9183.7405  0.0073 -5.1861
siesta:   28    -9182.9035    -9183.4570    -9183.5066  0.0056 -5.1854
siesta:   29    -9182.9035    -9183.4036    -9183.4532  0.0035 -5.1861
siesta:   30    -9182.9031    -9183.0584    -9183.1080  0.0030 -5.1861
siesta:   31    -9182.9032    -9183.0745    -9183.1243  0.0012 -5.1863
siesta:   32    -9182.9031    -9182.9895    -9183.0391  0.0015 -5.1870
siesta:   33    -9182.9032    -9182.9903    -9183.0400  0.0007 -5.1871
siesta:   34    -9182.9032    -9182.9773    -9183.0269  0.0004 -5.1870
siesta:   35    -9182.9032    -9182.9553    -9183.0048  0.0003 -5.1870
siesta:   36    -9182.9031    -9182.9232    -9182.9728  0.0002 -5.1872
siesta:   37    -9182.9031    -9182.9143    -9182.9639  0.0001 -5.1873
siesta:   38    -9182.9031    -9182.9146    -9182.9642  0.0001 -5.1873
siesta:   39    -9182.9031    -9182.9111    -9182.9607  0.0001 -5.1872

siesta: E_KS(eV) =            -9182.9066

siesta: E_KS - E_eggbox =     -9182.9066

siesta: Atomic forces (eV/Ang):
----------------------------------------
   Tot   -0.023181    0.058024    0.000000
----------------------------------------
   Max  564.179864
   Res  138.844937    sqrt( Sum f_i^2 / 3N )
----------------------------------------
   Max  564.179864    constrained

Stress-tensor-Voigt (kbar):     -711.76    -2547.69       -0.64       -5.80        0.00        0.00
(Free)E + p*V (eV/cell)    -7898.8691
Target enthalpy (eV/cell)    -9182.9562

siesta: Stress tensor (static) (eV/Ang**3):
        -0.444238   -0.003623    0.000000
        -0.003623   -1.590125    0.000000
         0.000000    0.000000   -0.000397

siesta: Pressure (static):       1086.69310344  kBar

siesta: Stress tensor (total) (eV/Ang**3):
        -0.444238   -0.003623    0.000000
        -0.003623   -1.590125    0.000000
         0.000000    0.000000   -0.000397

siesta: Pressure (total):       1086.69310344  kBar

siesta: Temp_ion =       0.000 K

* Maximum dynamic memory allocated =   251 MB
Computing bands...

siesta: Program's energy decomposition (eV):
siesta: Ebs     =     -4107.586551
siesta: Eions   =     15585.763425
siesta: Ena     =      4194.530486
siesta: Ekin    =      8026.492102
siesta: Enl     =      -801.354064
siesta: DEna    =      -758.169021
siesta: DUscf   =       102.940228
siesta: DUext   =         0.000000
siesta: Exc     =     -4361.582873
siesta: eta*DQ  =         0.000000
siesta: Emadel  =         0.000000
siesta: Emeta   =         0.000000
siesta: Emolmec =         0.000000
siesta: Ekinion =         0.000000
siesta: Eharris =     -9182.903141
siesta: Etot    =     -9182.906567
siesta: FreeEng =     -9182.956170

siesta: Final energy (eV):
siesta:  Band Struct. =   -4107.586551
siesta:       Kinetic =    8026.492102
siesta:       Hartree =   25805.527991
siesta:    Ext. field =       0.000000
siesta:   Exch.-corr. =   -4361.582873
siesta:  Ion-electron =  -59356.857608
siesta:       Ion-ion =   20703.513822
siesta:       Ekinion =       0.000000
siesta:         Total =   -9182.906567

siesta: Atomic forces (eV/Ang):
siesta:      1    4.051397  107.230858    0.000000
siesta:      2   -3.611066  106.326798    0.000000
siesta:      3   18.246493    1.616452    0.000000
siesta:      4   18.566715 -390.377471    0.000000
siesta:      5    2.069378    0.811511    0.000000
siesta:      6  -15.389932    1.012625    0.000000
siesta:      7  -18.124310 -391.948042    0.000000
siesta:      8  -16.004719   -3.041803    0.000000
siesta:      9    0.106123  414.385008    0.000000
siesta:     10   -2.780126   -2.726592    0.000000
siesta:     11    4.483519    3.017196    0.000000
siesta:     12   -2.779100   -3.376481    0.000000
siesta:     13   -3.414254    3.023454    0.000000
siesta:     14   -4.401580   -1.991246    0.000000
siesta:     15    4.186890   -3.139172    0.000000
siesta:     16    1.027543    1.867287    0.000000
siesta:     17  -15.761252    1.557982    0.000000
siesta:     18  -16.389540 -398.632866    0.000000
siesta:     19   -2.928214    4.434914    0.000000
siesta:     20   -3.503740    2.519741    0.000000
siesta:     21   -3.029996  108.533451    0.000000
siesta:     22   -0.965780 -380.680937    0.000000
siesta:     23    7.078453  548.111793    0.000000
siesta:     24   -7.728412 -131.586126    0.000000
siesta:     25  -18.346669 -553.253110    0.000000
siesta:     26   17.913701 -546.981170    0.000000
siesta:     27    3.232072   -3.248947    0.000000
siesta:     28    2.477220    1.830529    0.000000
siesta:     29   -1.131886    0.617794    0.000000
siesta:     30   19.742697  546.787636    0.000000
siesta:     31    3.889813 -130.558182    0.000000
siesta:     32   34.133398  396.916156    0.000000
siesta:     33   22.020567    0.154974    0.000000
siesta:     34   -3.056040   -3.017726    0.000000
siesta:     35    2.098412    0.397658    0.000000
siesta:     36   -0.782636   -0.710912    0.000000
siesta:     37    1.832520   -2.138008    0.000000
siesta:     38    0.413550    6.585086    0.000000
siesta:     39   -0.631108   -6.674536    0.000000
siesta:     40  -19.575398  404.266424    0.000000
siesta:     41   -4.015609 -122.483902    0.000000
siesta:     42   -1.316146  403.089300    0.000000
siesta:     43   -0.674004 -128.824636    0.000000
siesta:     44   26.625378  564.179864    0.000000
siesta:     45   21.940064   -3.017611    0.000000
siesta:     46   -1.192470    1.572505    0.000000
siesta:     47    0.485358   -0.122104    0.000000
siesta:     48   -0.380416    0.782451    0.000000
siesta:     49   -0.184714   -0.734748    0.000000
siesta:     50  -34.027899  398.384404    0.000000
siesta:     51  -21.598113   -0.162395    0.000000
siesta:     52  -24.769689  563.213744    0.000000
siesta:     53    0.351249    3.466548    0.000000
siesta:     54   -0.614163    0.114199    0.000000
siesta:     55   -0.196851    0.331963    0.000000
siesta:     56    2.496395   -2.507672    0.000000
siesta:     57   -5.847718   -2.657572    0.000000
siesta:     58    4.267988    0.395443    0.000000
siesta:     59    4.340462    0.105473    0.000000
siesta:     60    2.035069   -0.228038    0.000000
siesta:     61   -6.028897   -2.352480    0.000000
siesta:     62   -1.443858    5.575262    0.000000
siesta:     63    0.511971   -5.924225    0.000000
siesta:     64   -7.128217   -0.506998    0.000000
siesta:     65    0.584261    0.618738    0.000000
siesta:     66   -0.535938   -2.175798    0.000000
siesta:     67    0.108669   -2.344214    0.000000
siesta:     68   -6.192415 -558.438015    0.000000
siesta:     69   21.284385    7.908448    0.000000
siesta:     70   25.012589 -543.563433    0.000000
siesta:     71   -3.039349  125.743372    0.000000
siesta:     72    1.884745 -407.301845    0.000000
siesta: ----------------------------------------
siesta:    Tot   -0.023181    0.058024    0.000000

siesta: Stress tensor (static) (eV/Ang**3):
siesta:    -0.444238   -0.003623    0.000000
siesta:    -0.003623   -1.590125    0.000000
siesta:     0.000000    0.000000   -0.000397

siesta: Cell volume =       1893.226884 Ang**3

siesta: Pressure (static):
siesta:                Solid            Molecule  Units
siesta:           0.00738704          0.10549272  Ry/Bohr**3
siesta:           0.67825316          9.68598242  eV/Ang**3
siesta:        1086.69310344      15518.82245415  kBar
(Free)E+ p_basis*V_orbitals  =       -9145.267578
(Free)Eharris+ p_basis*V_orbitals  =       -9145.259620

siesta: Electric dipole (a.u.)  =    0.000000    0.000000    0.000000
siesta: Electric dipole (Debye) =    0.000000    0.000000    0.000000

* Maximum dynamic memory allocated : Node    0 =   251 MB
* Maximum dynamic memory allocated : Node    1 =    87 MB
* Maximum dynamic memory allocated : Node    2 =    90 MB
* Maximum dynamic memory allocated : Node    3 =   238 MB
* Maximum dynamic memory allocated : Node    4 =   222 MB
* Maximum dynamic memory allocated : Node    5 =    82 MB
* Maximum dynamic memory allocated : Node    6 =    83 MB
* Maximum dynamic memory allocated : Node    7 =   205 MB

* Maximum memory occured during matrixMtoO                    

timer: CPU execution times:
timer:  Routine       Calls   Time/call    Tot.time        %
timer:  siesta            1  171480.782  171480.782   100.00
timer:  Setup             1       3.888       3.888     0.00
timer:  bands             3     269.403     808.209     0.47
timer:  writewave         1       0.043       0.043     0.00
timer:  KSV_init          1       0.006       0.006     0.00
timer:  IterMD            1  170662.977  170662.977    99.52
timer:  hsparse           1       0.399       0.399     0.00
timer:  overlap           1       7.802       7.802     0.00
timer:  IterSCF          39    4369.621  170415.208    99.38
timer:  kinefsm           2       4.073       8.146     0.00
timer:  nlefsm            2      21.766      43.533     0.03
timer:  DHSCF            40     133.952    5358.084     3.12
timer:  DHSCF1            1       1.001       1.001     0.00
timer:  DHSCF2            1      46.561      46.561     0.03
timer:  REORD           322       0.010       3.206     0.00
timer:  POISON           41       2.234      91.587     0.05
timer:  DHSCF3           40     131.615    5264.619     3.07
timer:  rhoofd           40      26.407    1056.294     0.62
timer:  cellXC           40       3.480     139.215     0.08
timer:  vmat             40      64.460    2578.411     1.50
timer:  MolMec            2       0.000       0.000     0.00
timer:  diagon           39    4234.052  165128.022    96.30
timer:  c-eigval       9130       6.691   61090.812    35.63
timer:  c-buildHS      9130       0.123    1122.086     0.65
timer:  cdiag         18139       6.877  124746.294    72.75
timer:  cdiag1        18139       0.430    7801.510     4.55
timer:  cdiag2        18139       1.909   34621.270    20.19
timer:  cdiag3        18139       3.949   71634.617    41.77
timer:  cdiag4        18139       0.224    4064.890     2.37
timer:  c-eigvec       9009       7.265   65451.880    38.17
timer:  c-buildD       9009       4.367   39344.351    22.94
timer:  DHSCF4            1      43.768      43.768     0.03
timer:  dfscf             1      41.090      41.090     0.02
timer:  overfsm           1       0.484       0.484     0.00
timer:  optical           1       5.016       5.016     0.00
  

elaps: ELAPSED times:
elaps:  Routine       Calls   Time/call    Tot.time        %
elaps:  siesta            1   21460.472   21460.472   100.00
elaps:  Setup             1       0.503       0.503     0.00
elaps:  bands             3      33.728     101.183     0.47
elaps:  writewave         1       0.006       0.006     0.00
elaps:  KSV_init          1       0.001       0.001     0.00
elaps:  IterMD            1   21358.124   21358.124    99.52
elaps:  hsparse           1       0.055       0.055     0.00
elaps:  overlap           1       0.980       0.980     0.00
elaps:  IterSCF          39     546.853   21327.264    99.38
elaps:  kinefsm           2       0.510       1.021     0.00
elaps:  nlefsm            2       2.713       5.427     0.03
elaps:  DHSCF            40      16.910     676.390     3.15
elaps:  DHSCF1            1       0.130       0.130     0.00
elaps:  DHSCF2            1       5.819       5.819     0.03
elaps:  REORD           322       0.001       0.434     0.00
elaps:  POISON           41       0.280      11.460     0.05
elaps:  DHSCF3           40      16.465     658.603     3.07
elaps:  rhoofd           40       7.633     305.324     1.42
elaps:  cellXC           40       0.435      17.393     0.08
elaps:  vmat             40       8.063     322.538     1.50
elaps:  MolMec            2       0.000       0.000     0.00
elaps:  diagon           39     529.900   20666.108    96.30
elaps:  c-eigval       9130       0.837    7643.955    35.62
elaps:  c-buildHS      9130       0.017     153.725     0.72
elaps:  cdiag         18139       0.849   15409.046    71.80
elaps:  cdiag1        18139       0.053     965.585     4.50
elaps:  cdiag2        18139       0.239    4332.082    20.19
elaps:  cdiag3        18139       0.495    8975.092    41.82
elaps:  cdiag4        18139       0.029     522.515     2.43
elaps:  c-eigvec       9009       0.890    8021.719    37.38
elaps:  c-buildD       9009       0.565    5094.384    23.74
elaps:  DHSCF4            1      11.544      11.544     0.05
elaps:  dfscf             1      11.000      11.000     0.05
elaps:  overfsm           1       0.062       0.062     0.00
elaps:  optical           1       0.001       0.001     0.00
  
>> End of run:  25-APR-2016  18:11:23
