Siesta Version:                                        siesta-3.2-pl-3
Architecture  : x86_64-unknown-linux-gnu--unknown
Compiler flags: mpiifort -g -O2 -fPIC -xSSE4.1 -fp-model source -shared-intel 
PARALLEL version

* Running on    8 nodes in parallel
>> Start of run:  22-APR-2016   6:03:12

                           ***********************       
                           *  WELCOME TO SIESTA  *       
                           ***********************       

reinit: Reading from standard input
************************** Dump of input data file ****************************
#(1) General system descriptors
SystemName            GRP_doping    # Descriptive name of the system
SystemLabel           GRP_doping    # Short name for naming files
%include STRUCT.fdf
%include KPT.fdf
%include BASIS.fdf
#%include TS.fdf # for transiesta calculation
#(4) DFT, Grid, SCF
XC.functional         GGA           # LDA or GGA (default = LDA)
XC.authors            PBE           # CA (Ceperley-Aldr) = PZ
                                    #    (Perdew-Zunger) - LDA - Default
                                    # PW92 (Perdew-Wang-92) - LDA
                                    # PBE (Perdew-Burke-Ernzerhof) - GGA
MeshCutoff            200.000000    Ry      # Default: 50.0 Ry ~ 0.444 Bohr
                                    #         100.0 Ry ~ 0.314 Bohr
MaxSCFIterations      500           # Default: 50
DM.MixingWeight       0.05          # Default: 0.25
DM.NumberPulay        10            # Default: 0
DM.PulayOnFile        F             # SystemLabel.P1, SystemLabel.P2
DM.Tolerance          1.d-4         # Default: 1.d-4
DM.UseSaveDM          .true.        # because of the bug
SCFMustConverge       .true.
NeglNonOverlapInt     F             # Default: F
#(5) Eigenvalue problem: order-N or diagonalization
SolutionMethod        Diagon        # or Transiesta
ElectronicTemperature 300.0 K       # Default: 300.0 K
#(6) Molecular dynamics and relaxations
#MD.TypeOfRun          CG            # Type of dynamics:
#MD.VariableCell       F
#MD.NumCGsteps         0           # 0 for single-point / 100 for gopt
#MD.MaxCGDispl         0.2 Bohr      # Default: 0.2 Bohr
#MD.MaxForceTol        0.02 eV/Ang   # Default: 0.04 eV/Ang
#MD.MaxStressTol       1.0 GPa       # Default: 1.0 GPa
# Geometry Constraints
#%block GeometryConstraints
#	position from 1 to 44
#%endblock GeometryConstraints
BandLinesScale   pi/a
%block BandLines
 1   0.00000000  0.00000000  0.00000000
50   0.00000000  0.07809418  0.00000000
50   0.04509075  0.07809242  0.00000000
20   0.00000000  0.00000000  0.00000000
%endblock BandLines
************************** End of input data file *****************************

reinit: -----------------------------------------------------------------------
reinit: System Name: GRP_doping
reinit: -----------------------------------------------------------------------
reinit: System Label: GRP_doping                                                  
reinit: -----------------------------------------------------------------------

initatom: Reading input for the pseudopotentials and atomic orbitals ----------
 Species number:            1  Label: N Atomic number:           7
 Species number:            2  Label: C Atomic number:           6
Ground state valence configuration:   2s02  2p03
Reading pseudopotential information in formatted form from N.psf

Valence configuration for pseudopotential generation:
2s( 2.00) rc: 1.48
2p( 3.00) rc: 1.48
3d( 0.00) rc: 1.48
4f( 0.00) rc: 1.48
Ground state valence configuration:   2s02  2p02
Reading pseudopotential information in formatted form from C.psf

Valence configuration for pseudopotential generation:
2s( 2.00) rc: 1.54
2p( 2.00) rc: 1.54
3d( 0.00) rc: 1.54
4f( 0.00) rc: 1.54
For N, standard SIESTA heuristics set lmxkb to 3
 (one more than the basis l, including polarization orbitals).
Use PS.lmax or PS.KBprojectors blocks to override.
For C, standard SIESTA heuristics set lmxkb to 3
 (one more than the basis l, including polarization orbitals).
Use PS.lmax or PS.KBprojectors blocks to override.

<basis_specs>
===============================================================================
N                    Z=   7    Mass=  14.010        Charge= 0.17977+309
Lmxo=1 Lmxkb= 3    BasisType=split      Semic=F
L=0  Nsemic=0  Cnfigmx=2
          n=1  nzeta=2  polorb=0
            splnorm:   0.15000    
               vcte:    0.0000    
               rinn:    0.0000    
                rcs:    0.0000      0.0000    
            lambdas:    1.0000      1.0000    
L=1  Nsemic=0  Cnfigmx=2
          n=1  nzeta=2  polorb=1
            splnorm:   0.15000    
               vcte:    0.0000    
               rinn:    0.0000    
                rcs:    0.0000      0.0000    
            lambdas:    1.0000      1.0000    
-------------------------------------------------------------------------------
L=0  Nkbl=1  erefs: 0.17977+309
L=1  Nkbl=1  erefs: 0.17977+309
L=2  Nkbl=1  erefs: 0.17977+309
L=3  Nkbl=1  erefs: 0.17977+309
===============================================================================
</basis_specs>

atom: Called for N                     (Z =   7)

read_vps: Pseudopotential generation method:
read_vps: ATM3      Troullier-Martins                       
Total valence charge:    5.00000

read_vps: Pseudopotential includes a core correction:
read_vps: Pseudo-core for xc-correction

xc_check: Exchange-correlation functional:
xc_check: GGA Perdew, Burke & Ernzerhof 1996
V l=0 = -2*Zval/r beyond r=  1.4606
V l=1 = -2*Zval/r beyond r=  1.4606
V l=2 = -2*Zval/r beyond r=  1.4606
V l=3 = -2*Zval/r beyond r=  1.4606
All V_l potentials equal beyond r=  1.4606
This should be close to max(r_c) in ps generation
All pots = -2*Zval/r beyond r=  1.4606

VLOCAL1: 99.0% of the norm of Vloc inside     20.347 Ry
VLOCAL1: 99.9% of the norm of Vloc inside     46.372 Ry
atom: Maximum radius for 4*pi*r*r*local-pseudopot. charge    1.76189
atom: Maximum radius for r*vlocal+2*Zval:    1.53550
GHOST: No ghost state for L =  0
GHOST: No ghost state for L =  1
GHOST: No ghost state for L =  2
GHOST: No ghost state for L =  3

KBgen: Kleinman-Bylander projectors: 
   l= 0   rc=  1.634559   el= -1.363963   Ekb=  5.296955   kbcos=  0.335621
   l= 1   rc=  1.614250   el= -0.521451   Ekb= -5.259161   kbcos= -0.433408
   l= 2   rc=  1.718383   el=  0.001991   Ekb= -1.271464   kbcos= -0.007566
   l= 3   rc=  1.761893   el=  0.003093   Ekb= -0.494769   kbcos= -0.001015

KBgen: Total number of  Kleinman-Bylander projectors:   16
atom: -------------------------------------------------------------------------

atom: SANKEY-TYPE ORBITALS:
atom: Selected multiple-zeta basis: split     

SPLIT: Orbitals with angular momentum L= 0

SPLIT: Basis orbitals for state 2s

SPLIT: PAO cut-off radius determined from an
SPLIT: energy shift=  0.007350 Ry

   izeta = 1
                 lambda =    1.000000
                     rc =    4.071465
                 energy =   -1.356470
                kinetic =    1.176977
    potential(screened) =   -2.533447
       potential(ionic) =   -8.057990

   izeta = 2
                 rmatch =    2.905100
              splitnorm =    0.150000
                 energy =   -1.158343
                kinetic =    1.813009
    potential(screened) =   -2.971352
       potential(ionic) =   -8.901931

SPLIT: Orbitals with angular momentum L= 1

SPLIT: Basis orbitals for state 2p

SPLIT: PAO cut-off radius determined from an
SPLIT: energy shift=  0.007350 Ry

   izeta = 1
                 lambda =    1.000000
                     rc =    4.972977
                 energy =   -0.513884
                kinetic =    3.441732
    potential(screened) =   -3.955616
       potential(ionic) =   -9.287901

   izeta = 2
                 rmatch =    3.054066
              splitnorm =    0.150000
                 energy =   -0.318226
                kinetic =    5.125348
    potential(screened) =   -5.443573
       potential(ionic) =  -11.380999

POLgen: Perturbative polarization orbital with L=  2

POLgen: Polarization orbital for state 2p

   izeta = 1
                     rc =    4.972977
                 energy =    1.607437
                kinetic =    3.268125
    potential(screened) =   -1.660688
       potential(ionic) =   -5.973652
atom: Total number of Sankey-type orbitals: 13

atm_pop: Valence configuration (for local Pseudopot. screening):
 2s( 2.00)                                                            
 2p( 3.00)                                                            
Vna: chval, zval:    5.00000   5.00000

Vna:  Cut-off radius for the neutral-atom potential:   4.972977
comcore: Pseudo-core radius Rcore=  1.554824

atom: _________________________________________________________________________

<basis_specs>
===============================================================================
C                    Z=   6    Mass=  12.010        Charge= 0.17977+309
Lmxo=1 Lmxkb= 3    BasisType=split      Semic=F
L=0  Nsemic=0  Cnfigmx=2
          n=1  nzeta=2  polorb=0
            splnorm:   0.15000    
               vcte:    0.0000    
               rinn:    0.0000    
                rcs:    0.0000      0.0000    
            lambdas:    1.0000      1.0000    
L=1  Nsemic=0  Cnfigmx=2
          n=1  nzeta=2  polorb=1
            splnorm:   0.15000    
               vcte:    0.0000    
               rinn:    0.0000    
                rcs:    0.0000      0.0000    
            lambdas:    1.0000      1.0000    
-------------------------------------------------------------------------------
L=0  Nkbl=1  erefs: 0.17977+309
L=1  Nkbl=1  erefs: 0.17977+309
L=2  Nkbl=1  erefs: 0.17977+309
L=3  Nkbl=1  erefs: 0.17977+309
===============================================================================
</basis_specs>

atom: Called for C                     (Z =   6)

read_vps: Pseudopotential generation method:
read_vps: ATM3      Troullier-Martins                       
Total valence charge:    4.00000

read_vps: Pseudopotential includes a core correction:
read_vps: Pseudo-core for xc-correction

xc_check: Exchange-correlation functional:
xc_check: GGA Perdew, Burke & Ernzerhof 1996
V l=0 = -2*Zval/r beyond r=  1.5227
V l=1 = -2*Zval/r beyond r=  1.5227
V l=2 = -2*Zval/r beyond r=  1.5227
V l=3 = -2*Zval/r beyond r=  1.5038
All V_l potentials equal beyond r=  1.5227
This should be close to max(r_c) in ps generation
All pots = -2*Zval/r beyond r=  1.5227

VLOCAL1: 99.0% of the norm of Vloc inside     18.722 Ry
VLOCAL1: 99.9% of the norm of Vloc inside     42.668 Ry
atom: Maximum radius for 4*pi*r*r*local-pseudopot. charge    1.83678
atom: Maximum radius for r*vlocal+2*Zval:    1.58088
GHOST: No ghost state for L =  0
GHOST: No ghost state for L =  1
GHOST: No ghost state for L =  2
GHOST: No ghost state for L =  3

KBgen: Kleinman-Bylander projectors: 
   l= 0   rc=  1.704034   el= -1.009801   Ekb=  5.335044   kbcos=  0.316824
   l= 1   rc=  1.704034   el= -0.388707   Ekb= -3.785862   kbcos= -0.366464
   l= 2   rc=  1.791422   el=  0.001971   Ekb= -0.970471   kbcos= -0.009212
   l= 3   rc=  1.859892   el=  0.003065   Ekb= -0.399525   kbcos= -0.001223

KBgen: Total number of  Kleinman-Bylander projectors:   16
atom: -------------------------------------------------------------------------

atom: SANKEY-TYPE ORBITALS:
atom: Selected multiple-zeta basis: split     

SPLIT: Orbitals with angular momentum L= 0

SPLIT: Basis orbitals for state 2s

SPLIT: PAO cut-off radius determined from an
SPLIT: energy shift=  0.007350 Ry

   izeta = 1
                 lambda =    1.000000
                     rc =    4.632753
                 energy =   -1.002270
                kinetic =    0.855760
    potential(screened) =   -1.858031
       potential(ionic) =   -5.417575

   izeta = 2
                 rmatch =    3.431921
              splitnorm =    0.150000
                 energy =   -0.867111
                kinetic =    1.300804
    potential(screened) =   -2.167915
       potential(ionic) =   -5.962684

SPLIT: Orbitals with angular momentum L= 1

SPLIT: Basis orbitals for state 2p

SPLIT: PAO cut-off radius determined from an
SPLIT: energy shift=  0.007350 Ry

   izeta = 1
                 lambda =    1.000000
                     rc =    5.658549
                 energy =   -0.381140
                kinetic =    2.399701
    potential(screened) =   -2.780841
       potential(ionic) =   -6.206085

   izeta = 2
                 rmatch =    3.653288
              splitnorm =    0.150000
                 energy =   -0.249149
                kinetic =    3.542762
    potential(screened) =   -3.791911
       potential(ionic) =   -7.581078

POLgen: Perturbative polarization orbital with L=  2

POLgen: Polarization orbital for state 2p

   izeta = 1
                     rc =    5.658549
                 energy =    1.109913
                kinetic =    2.304789
    potential(screened) =   -1.194876
       potential(ionic) =   -4.013592
atom: Total number of Sankey-type orbitals: 13

atm_pop: Valence configuration (for local Pseudopot. screening):
 2s( 2.00)                                                            
 2p( 2.00)                                                            
Vna: chval, zval:    4.00000   4.00000

Vna:  Cut-off radius for the neutral-atom potential:   5.658549
comcore: Pseudo-core radius Rcore=  1.791422

atom: _________________________________________________________________________

prinput: Basis input ----------------------------------------------------------

PAO.BasisType split     

%block ChemicalSpeciesLabel
    1    7 N                       # Species index, atomic number, species label
    2    6 C                       # Species index, atomic number, species label
%endblock ChemicalSpeciesLabel

%block PAO.Basis                 # Define Basis set
N                     2                    # Species label, number of l-shells
 n=2   0   2                         # n, l, Nzeta 
   4.071      2.905   
   1.000      1.000   
 n=2   1   2 P   1                   # n, l, Nzeta, Polarization, NzetaPol
   4.973      3.054   
   1.000      1.000   
C                     2                    # Species label, number of l-shells
 n=2   0   2                         # n, l, Nzeta 
   4.633      3.432   
   1.000      1.000   
 n=2   1   2 P   1                   # n, l, Nzeta, Polarization, NzetaPol
   5.659      3.653   
   1.000      1.000   
%endblock PAO.Basis

prinput: ----------------------------------------------------------------------

coor:   Atomic-coordinates input format  =     Fractional

siesta: Atomic coordinates (Bohr) and species
siesta:     -0.02582   2.59549   0.00000  1        1
siesta:     -0.02582   5.28395   0.00000  1        2
siesta:     -2.35420  38.89134   0.00000  1        3
siesta:     -2.35420  41.57980   0.00000  1        4
siesta:      2.30256  38.89134   0.00000  1        5
siesta:      2.30256  41.57980   0.00000  1        6
siesta:     -4.68258  34.85847   0.00000  1        7
siesta:     -4.68258  37.54693   0.00000  1        8
siesta:     -2.35420   6.62836   0.00000  1        9
siesta:     -2.35420   9.31683   0.00000  1       10
siesta:     -4.68258  10.66124   0.00000  1       11
siesta:     -4.68258  13.34970   0.00000  1       12
siesta:     -7.01096  14.69411   0.00000  1       13
siesta:     -7.01096  17.38257   0.00000  1       14
siesta:     -9.33934  18.72698   0.00000  1       15
siesta:     -9.33934  21.41544   0.00000  1       16
siesta:    -11.66772  22.75985   0.00000  1       17
siesta:    -11.66772  25.44831   0.00000  1       18
siesta:     -9.33934  26.79272   0.00000  1       19
siesta:     -9.33934  29.48119   0.00000  1       20
siesta:     -7.01096  30.82560   0.00000  1       21
siesta:     -7.01096  33.51406   0.00000  1       22
siesta:     -0.02582  37.54693   0.00000  1       23
siesta:     -0.02582  42.92421   0.00000  1       24
siesta:     -0.02582  45.61267   0.00000  1       25
siesta:      4.63094  34.85847   0.00000  2       26
siesta:      4.63094  37.54693   0.00000  2       27
siesta:      6.95932  30.82560   0.00000  2       28
siesta:      6.95932  33.51406   0.00000  2       29
siesta:      9.28770  26.79272   0.00000  2       30
siesta:      9.28770  29.48119   0.00000  2       31
siesta:      2.30256   6.62836   0.00000  2       32
siesta:      2.30256   9.31683   0.00000  2       33
siesta:      4.63094  10.66124   0.00000  2       34
siesta:      4.63094  13.34970   0.00000  2       35
siesta:      6.95932  14.69411   0.00000  2       36
siesta:      6.95932  17.38257   0.00000  2       37
siesta:      9.28770  18.72698   0.00000  2       38
siesta:      9.28770  21.41544   0.00000  2       39
siesta:     11.61608  22.75985   0.00000  2       40
siesta:     11.61608  25.44831   0.00000  2       41
siesta:     -0.02582  10.66124   0.00000  2       42
siesta:     -0.02582  13.34970   0.00000  2       43
siesta:      2.30256  14.69411   0.00000  2       44
siesta:      2.30256  17.38257   0.00000  2       45
siesta:      4.63094  18.72698   0.00000  2       46
siesta:      4.63094  21.41544   0.00000  2       47
siesta:      6.95932  22.75985   0.00000  2       48
siesta:      6.95932  25.44831   0.00000  2       49
siesta:     -2.35420  14.69411   0.00000  2       50
siesta:     -2.35420  17.38257   0.00000  2       51
siesta:     -0.02582  18.72698   0.00000  2       52
siesta:     -0.02582  21.41544   0.00000  2       53
siesta:      2.30256  22.75985   0.00000  2       54
siesta:      2.30256  25.44831   0.00000  2       55
siesta:     -4.68258  18.72698   0.00000  2       56
siesta:     -4.68258  21.41544   0.00000  2       57
siesta:     -2.35420  22.75985   0.00000  2       58
siesta:     -2.35420  25.44831   0.00000  2       59
siesta:     -7.01096  22.75985   0.00000  2       60
siesta:     -7.01096  25.44831   0.00000  2       61
siesta:      4.63094  26.79272   0.00000  2       62
siesta:      4.63094  29.48119   0.00000  2       63
siesta:     -0.02582  26.79272   0.00000  2       64
siesta:     -0.02582  29.48119   0.00000  2       65
siesta:     -4.68258  26.79272   0.00000  2       66
siesta:     -4.68258  29.48119   0.00000  2       67
siesta:      2.30256  30.82560   0.00000  2       68
siesta:      2.30256  33.51406   0.00000  2       69
siesta:     -2.35420  30.82560   0.00000  2       70
siesta:     -2.35420  33.51406   0.00000  2       71
siesta:     -0.02582  34.85847   0.00000  2       72

siesta: System type = slab      

initatomlists: Number of atoms, orbitals, and projectors:     72   936  1152

siesta: ******************** Simulation parameters ****************************
siesta:
siesta: The following are some of the parameters of the simulation.
siesta: A complete list of the parameters used, including default values,
siesta: can be found in file out.fdf
siesta:
redata: Non-Collinear-spin run           =     F
redata: SpinPolarized (Up/Down) run      =     F
redata: Number of spin components        =     1
redata: Long output                      =     F
redata: Number of Atomic Species         =        2
redata: Charge density info will appear in .RHO file
redata: Write Mulliken Pop.              =     NO
redata: Mesh Cutoff                      =   200.0000  Ry
redata: Net charge of the system         =     0.0000 |e|
redata: Max. number of SCF Iter          =      500
redata: SCF convergence failure will abort job
redata: Performing Pulay mixing using    =    10 iterations
redata: Mix DM in first SCF step ?       =     F
redata: Write Pulay info on disk?        =     F
redata: Discard 1st Pulay DM after  kick =     F
redata: New DM Mixing Weight             =     0.0500
redata: New DM Occupancy tolerance       = 0.000000000001
redata: No kicks to SCF
redata: DM Mixing Weight for Kicks       =     0.5000
redata: DM Tolerance for SCF             =     0.000100
redata: Require Energy convergence for SCF =     F
redata: DM Energy tolerance for SCF      =     0.000100 eV
redata: Require Harris convergence for SCF =     F
redata: DM Harris energy tolerance for SCF =     0.000100 eV
redata: Using Saved Data (generic)   =     F
redata: Use continuation files for DM    =     T
redata: Neglect nonoverlap interactions  =     F
redata: Method of Calculation            =     Diagonalization
redata: Divide and Conquer               =     T
redata: Electronic Temperature           =     0.0019  Ry
redata: Fix the spin of the system       =     F
redata: Dynamics option                  =     Verlet MD run
redata: Initial MD time step             =        1
redata:   Final MD time step             =        1
redata: Length of MD time step           =     1.0000  fs
redata: Initial Temperature of MD run    =     0.0000  K
redata: Perform a MD quench              =     F
redata: ***********************************************************************
Total number of electrons:   313.000000
Total ionic charge:   313.000000

* ProcessorY, Blocksize:    2  24

k-point displ. along   1 input, could be:     0.50    0.00
k-point displ. along   2 input, could be:     0.50    0.00
 Kpoints in:          231 . Kpoints trimmed:          231

siesta: k-grid: Number of k-points =   231
siesta: k-grid: Cutoff (effective) =     5.000 Ang
siesta: k-grid: Supercell and displacements
siesta: k-grid:   21   0   0      0.500
siesta: k-grid:    0  21   0      0.500
siesta: k-grid:    0   0   1      0.000
Naive supercell factors:     2    2    2

superc: Internal auxiliary supercell:     2 x     2 x     2  =       8
superc: Number of atoms, orbitals, and projectors:    576   7488   9216

* Maximum dynamic memory allocated =     4 MB

siesta:                 ==============================
                            Begin MD step =      1
                        ==============================

superc: Internal auxiliary supercell:     2 x     2 x     2  =       8
superc: Number of atoms, orbitals, and projectors:    576   7488   9216

outcell: Unit cell vectors (Ang):
       12.804619    7.392750    0.000000
        0.000000   14.785500    0.000000
        0.000000    0.000000   10.000000

outcell: Cell vector modules (Ang)   :   14.785500   14.785500   10.000000
outcell: Cell angles (23,13,12) (deg):     90.0000     90.0000     60.0000
outcell: Cell volume (Ang**3)        :   1893.2269
New_DM. Step:     1
Initializing Density Matrix...

InitMesh: MESH =   120 x   120 x    90 =     1296000
InitMesh: Mesh cutoff (required, used) =   200.000   223.865 Ry

* Maximum dynamic memory allocated =   176 MB

stepf: Fermi-Dirac step function

siesta: Program's energy decomposition (eV):
siesta: Ebs     =     -6441.809771
siesta: Eions   =     22421.682175
siesta: Ena     =      4996.224035
siesta: Ekin    =      8476.244847
siesta: Enl     =      -117.007358
siesta: DEna    =        -0.000015
siesta: DUscf   =         0.000000
siesta: DUext   =         0.000000
siesta: Exc     =     -4813.989134
siesta: eta*DQ  =         0.000000
siesta: Emadel  =         0.000000
siesta: Emeta   =         0.000000
siesta: Emolmec =         0.000000
siesta: Ekinion =         0.000000
siesta: Eharris =    -13447.965484
siesta: Etot    =    -13880.209800
siesta: FreeEng =    -13880.209800

siesta: iscf   Eharris(eV)      E_KS(eV)   FreeEng(eV)   dDmax  Ef(eV)
siesta:    1   -13447.9655   -13880.2098   -13880.2098  5.3489 -6.1746
timer: Routine,Calls,Time,% = IterSCF        1    4202.285  99.73
elaps: Routine,Calls,Wall,% = IterSCF        1     525.909  99.73
siesta:    2   -15373.2026   -13042.2129   -13042.2576 10.1828 -1.5279
siesta:    3   -13349.4682   -13615.1178   -13615.1596  1.8130 -4.2795
siesta:    4   -13330.2753   -13500.9583   -13501.0044  1.2032 -3.6530
siesta:    5   -13307.0393   -13444.7318   -13444.7777  0.7011 -3.9365
siesta:    6   -13305.2544   -13429.2971   -13429.3140  0.6603 -3.8384
siesta:    7   -13302.7581   -13385.1182   -13385.1650  0.5287 -3.6781
siesta:    8   -13302.6343   -13361.9495   -13361.9997  0.3674 -3.8881
siesta:    9   -13302.5936   -13331.3846   -13331.4279  0.2648 -3.7722
siesta:   10   -13302.0257   -13307.2890   -13307.3393  0.1866 -3.7270
siesta:   11   -13301.2409   -13300.2830   -13300.3346  0.2140 -3.7352
siesta:   12   -13301.0963   -13296.3694   -13296.4180  0.4257 -3.6171
siesta:   13   -13300.9482   -13295.8491   -13295.8961  0.3534 -3.6344
siesta:   14   -13300.8108   -13297.0922   -13297.1406  0.1470 -3.7429
siesta:   15   -13300.7559   -13295.9928   -13296.0443  0.0734 -3.7004
siesta:   16   -13300.7416   -13296.3303   -13296.3853  0.0779 -3.7084
siesta:   17   -13300.7184   -13297.9952   -13298.0496  0.0721 -3.7152
siesta:   18   -13300.7182   -13299.8618   -13299.9150  0.0512 -3.7265
siesta:   19   -13300.7126   -13300.8301   -13300.8832  0.0208 -3.7288
siesta:   20   -13300.7115   -13300.6689   -13300.7225  0.0170 -3.7184
siesta:   21   -13300.7102   -13300.3630   -13300.4166  0.0180 -3.7142
siesta:   22   -13300.7094   -13300.3839   -13300.4378  0.0095 -3.7175
siesta:   23   -13300.7093   -13300.5112   -13300.5652  0.0092 -3.7180
siesta:   24   -13300.7093   -13300.7314   -13300.7851  0.0020 -3.7164
siesta:   25   -13300.7092   -13300.8113   -13300.8650  0.0018 -3.7164
siesta:   26   -13300.7092   -13300.8198   -13300.8735  0.0023 -3.7162
siesta:   27   -13300.7091   -13300.7785   -13300.8323  0.0014 -3.7164
siesta:   28   -13300.7091   -13300.7514   -13300.8052  0.0011 -3.7161
siesta:   29   -13300.7091   -13300.7483   -13300.8021  0.0004 -3.7163
siesta:   30   -13300.7091   -13300.7446   -13300.7984  0.0002 -3.7165
siesta:   31   -13300.7091   -13300.7210   -13300.7748  0.0002 -3.7167
siesta:   32   -13300.7091   -13300.7097   -13300.7635  0.0002 -3.7166
siesta:   33   -13300.7091   -13300.7084   -13300.7622  0.0002 -3.7166
siesta:   34   -13300.7091   -13300.7128   -13300.7666  0.0002 -3.7166
siesta:   35   -13300.7091   -13300.7121   -13300.7659  0.0002 -3.7166
siesta:   36   -13300.7091   -13300.7107   -13300.7645  0.0001 -3.7166

siesta: E_KS(eV) =           -13300.7102

siesta: E_KS - E_eggbox =    -13300.7102

siesta: Atomic forces (eV/Ang):
----------------------------------------
   Tot   -0.133024   -0.026071    0.000000
----------------------------------------
   Max  756.628656
   Res  191.179840    sqrt( Sum f_i^2 / 3N )
----------------------------------------
   Max  756.628656    constrained

Stress-tensor-Voigt (kbar):     -615.18    -3481.97       -0.05        3.87        0.00        0.00
(Free)E + p*V (eV/cell)   -11686.9506
Target enthalpy (eV/cell)   -13300.7639

siesta: Stress tensor (static) (eV/Ang**3):
        -0.383959    0.002416    0.000000
         0.002416   -2.173251    0.000000
         0.000000    0.000000   -0.000033

siesta: Pressure (static):       1365.73273233  kBar

siesta: Stress tensor (total) (eV/Ang**3):
        -0.383959    0.002416    0.000000
         0.002416   -2.173251    0.000000
         0.000000    0.000000   -0.000033

siesta: Pressure (total):       1365.73273233  kBar

siesta: Temp_ion =       0.000 K

* Maximum dynamic memory allocated =   193 MB
Computing bands...

siesta: Program's energy decomposition (eV):
siesta: Ebs     =     -5172.416046
siesta: Eions   =     22421.682175
siesta: Ena     =      4996.224035
siesta: Ekin    =     11770.986258
siesta: Enl     =     -1910.553436
siesta: DEna    =      -851.745618
siesta: DUscf   =       118.158279
siesta: DUext   =         0.000000
siesta: Exc     =     -5002.097499
siesta: eta*DQ  =         0.000000
siesta: Emadel  =         0.000000
siesta: Emeta   =         0.000000
siesta: Emolmec =         0.000000
siesta: Ekinion =         0.000000
siesta: Eharris =    -13300.709113
siesta: Etot    =    -13300.710157
siesta: FreeEng =    -13300.763928

siesta: Final energy (eV):
siesta:  Band Struct. =   -5172.416046
siesta:       Kinetic =   11770.986258
siesta:       Hartree =   38100.954591
siesta:    Ext. field =       0.000000
siesta:   Exch.-corr. =   -5002.097499
siesta:  Ion-electron =  -87446.403706
siesta:       Ion-ion =   29275.850199
siesta:       Ekinion =       0.000000
siesta:         Total =  -13300.710157

siesta: Atomic forces (eV/Ang):
siesta:      1   -3.685562  645.429536    0.000000
siesta:      2   -1.600603 -108.264499    0.000000
siesta:      3    4.140536  104.384830    0.000000
siesta:      4  -28.220149 -658.023951    0.000000
siesta:      5    0.893295  102.936995    0.000000
siesta:      6   21.139708 -657.176456    0.000000
siesta:      7  -27.809252   -0.934509    0.000000
siesta:      8  -28.332469 -756.628656    0.000000
siesta:      9  -24.034308  659.602295    0.000000
siesta:     10    1.147775 -103.104380    0.000000
siesta:     11  -26.467308  756.582264    0.000000
siesta:     12  -27.939827    0.354510    0.000000
siesta:     13   -0.753242    2.882966    0.000000
siesta:     14    2.259737    1.492060    0.000000
siesta:     15   -1.239851   -0.561305    0.000000
siesta:     16    2.040961    0.199434    0.000000
siesta:     17    1.131954    1.515106    0.000000
siesta:     18    1.148244   -1.531412    0.000000
siesta:     19    2.007324   -0.114306    0.000000
siesta:     20   -1.287731    0.473189    0.000000
siesta:     21    2.318010   -1.513000    0.000000
siesta:     22   -0.725714   -2.637930    0.000000
siesta:     23   -6.248357 -677.264409    0.000000
siesta:     24   -3.666210  106.350734    0.000000
siesta:     25   -1.263917 -645.833500    0.000000
siesta:     26   26.362750    4.285332    0.000000
siesta:     27   33.629378 -555.297194    0.000000
siesta:     28    1.654984    0.176485    0.000000
siesta:     29   -3.143747    2.125287    0.000000
siesta:     30    1.741831    2.748145    0.000000
siesta:     31   -1.590773   -0.444709    0.000000
siesta:     32   14.564465  556.457928    0.000000
siesta:     33    3.198217 -120.965225    0.000000
siesta:     34   19.671862  551.463821    0.000000
siesta:     35   26.423603   -3.262323    0.000000
siesta:     36   -3.298221   -1.812379    0.000000
siesta:     37    1.426595    0.027405    0.000000
siesta:     38   -1.529711    0.223851    0.000000
siesta:     39    1.765379   -2.842265    0.000000
siesta:     40   -0.007193    7.666457    0.000000
siesta:     41   -0.008192   -7.606450    0.000000
siesta:     42    0.791468  674.340136    0.000000
siesta:     43    2.486554 -113.693336    0.000000
siesta:     44    2.345192  683.762211    0.000000
siesta:     45   24.770512   -3.695680    0.000000
siesta:     46   -1.298243    3.520483    0.000000
siesta:     47    0.448239   -0.171096    0.000000
siesta:     48   -0.001467    0.955656    0.000000
siesta:     49   -0.048909   -0.943027    0.000000
siesta:     50    6.613362  687.684139    0.000000
siesta:     51  -24.097003   -6.113545    0.000000
siesta:     52    1.442837  686.441344    0.000000
siesta:     53   -0.272848    0.546496    0.000000
siesta:     54    0.308986   -0.076333    0.000000
siesta:     55    0.363250    0.113130    0.000000
siesta:     56   -0.526183    1.444435    0.000000
siesta:     57   -1.559972    0.507138    0.000000
siesta:     58   -0.225584   -0.186120    0.000000
siesta:     59   -0.245271    0.203226    0.000000
siesta:     60   -0.754970   -0.354394    0.000000
siesta:     61   -0.699041    0.336887    0.000000
siesta:     62    0.467701    0.030718    0.000000
siesta:     63   -1.342251   -3.284943    0.000000
siesta:     64   -0.300350   -0.514466    0.000000
siesta:     65    3.681007 -685.351066    0.000000
siesta:     66   -1.540644   -0.572369    0.000000
siesta:     67   -0.407554   -1.276541    0.000000
siesta:     68   24.701311    4.320592    0.000000
siesta:     69    5.791543 -562.723609    0.000000
siesta:     70  -24.350977    7.364300    0.000000
siesta:     71    1.653346 -689.615288    0.000000
siesta:     72    5.858665  115.415084    0.000000
siesta: ----------------------------------------
siesta:    Tot   -0.133024   -0.026071    0.000000

siesta: Stress tensor (static) (eV/Ang**3):
siesta:    -0.383959    0.002416    0.000000
siesta:     0.002416   -2.173251    0.000000
siesta:     0.000000    0.000000   -0.000033

siesta: Cell volume =       1893.226884 Ang**3

siesta: Pressure (static):
siesta:                Solid            Molecule  Units
siesta:           0.00928388          0.15448418  Ry/Bohr**3
siesta:           0.85241411         14.18421211  eV/Ang**3
siesta:        1365.73273233      22725.85885348  kBar
(Free)E+ p_basis*V_orbitals  =      -13273.600401
(Free)Eharris+ p_basis*V_orbitals  =      -13273.598823

siesta: Electric dipole (a.u.)  =    0.000000    0.000000    0.000000
siesta: Electric dipole (Debye) =    0.000000    0.000000    0.000000

* Maximum dynamic memory allocated : Node    0 =   193 MB
* Maximum dynamic memory allocated : Node    1 =    70 MB
* Maximum dynamic memory allocated : Node    2 =    72 MB
* Maximum dynamic memory allocated : Node    3 =   185 MB
* Maximum dynamic memory allocated : Node    4 =   187 MB
* Maximum dynamic memory allocated : Node    5 =    70 MB
* Maximum dynamic memory allocated : Node    6 =    73 MB
* Maximum dynamic memory allocated : Node    7 =   172 MB

* Maximum memory occured during matrixMtoO                    

timer: CPU execution times:
timer:  Routine       Calls   Time/call    Tot.time        %
timer:  siesta            1  147376.168  147376.168   100.00
timer:  Setup             1       3.091       3.091     0.00
timer:  bands             3     272.757     818.270     0.56
timer:  writewave         1       0.018       0.018     0.00
timer:  KSV_init          1       0.002       0.002     0.00
timer:  IterMD            1  146548.928  146548.928    99.44
timer:  hsparse           1       0.238       0.238     0.00
timer:  overlap           1       7.700       7.700     0.01
timer:  IterSCF          36    4066.435  146391.652    99.33
timer:  kinefsm           2       3.986       7.972     0.01
timer:  nlefsm            2      18.204      36.409     0.02
timer:  DHSCF            37      81.153    3002.645     2.04
timer:  DHSCF1            1       0.769       0.769     0.00
timer:  DHSCF2            1      32.315      32.315     0.02
timer:  REORD           298       0.011       3.256     0.00
timer:  POISON           38       2.544      96.657     0.07
timer:  DHSCF3           37      79.413    2938.268     1.99
timer:  rhoofd           37      16.147     597.432     0.41
timer:  cellXC           37       3.466     128.247     0.09
timer:  vmat             37      37.992    1405.717     0.95
timer:  MolMec            2       0.000       0.000     0.00
timer:  diagon           36    3984.058  143426.081    97.32
timer:  c-eigval       8437       6.776   57167.423    38.79
timer:  c-buildHS      8437       0.137    1156.347     0.78
timer:  cdiag         16753       6.920  115933.398    78.66
timer:  cdiag1        16753       0.435    7280.681     4.94
timer:  cdiag2        16753       1.921   32175.766    21.83
timer:  cdiag3        16753       3.984   66744.807    45.29
timer:  cdiag4        16753       0.213    3575.034     2.43
timer:  c-eigvec       8316       7.261   60386.075    40.97
timer:  c-buildD       8316       3.204   26645.042    18.08
timer:  DHSCF4            1      28.979      28.979     0.02
timer:  dfscf             1      27.199      27.199     0.02
timer:  overfsm           1       0.395       0.395     0.00
timer:  optical           1       5.131       5.131     0.00
  

elaps: ELAPSED times:
elaps:  Routine       Calls   Time/call    Tot.time        %
elaps:  siesta            1   18441.826   18441.826   100.00
elaps:  Setup             1       0.386       0.386     0.00
elaps:  bands             3      34.147     102.442     0.56
elaps:  writewave         1       0.002       0.002     0.00
elaps:  KSV_init          1       0.000       0.000     0.00
elaps:  IterMD            1   18338.321   18338.321    99.44
elaps:  hsparse           1       0.030       0.030     0.00
elaps:  overlap           1       0.962       0.962     0.01
elaps:  IterSCF          36     508.851   18318.649    99.33
elaps:  kinefsm           2       0.494       0.987     0.01
elaps:  nlefsm            2       2.183       4.365     0.02
elaps:  DHSCF            37      10.254     379.381     2.06
elaps:  DHSCF1            1       0.098       0.098     0.00
elaps:  DHSCF2            1       4.043       4.043     0.02
elaps:  REORD           298       0.001       0.447     0.00
elaps:  POISON           38       0.318      12.102     0.07
elaps:  DHSCF3           37       9.935     367.610     1.99
elaps:  rhoofd           37       4.372     161.776     0.88
elaps:  cellXC           37       0.433      16.012     0.09
elaps:  vmat             37       4.753     175.861     0.95
elaps:  MolMec            2       0.000       0.000     0.00
elaps:  diagon           36     498.539   17947.411    97.32
elaps:  c-eigval       8437       0.848    7152.898    38.79
elaps:  c-buildHS      8437       0.018     151.892     0.82
elaps:  cdiag         16753       0.868   14543.167    78.86
elaps:  cdiag1        16753       0.054     909.060     4.93
elaps:  cdiag2        16753       0.240    4026.099    21.83
elaps:  cdiag3        16753       0.499    8363.347    45.35
elaps:  cdiag4        16753       0.027     451.871     2.45
elaps:  c-eigvec       8316       0.918    7631.278    41.38
elaps:  c-buildD       8316       0.392    3258.753    17.67
elaps:  DHSCF4            1       7.311       7.311     0.04
elaps:  dfscf             1       6.941       6.941     0.04
elaps:  overfsm           1       0.045       0.045     0.00
elaps:  optical           1       0.000       0.000     0.00
  
>> End of run:  22-APR-2016  11:10:34
