Siesta Version:                                        siesta-3.2-pl-3
Architecture  : x86_64-unknown-linux-gnu--unknown
Compiler flags: mpiifort -g -O2 -fPIC -xSSE4.1 -fp-model source -shared-intel 
PARALLEL version

* Running on    8 nodes in parallel
>> Start of run:   1-MAY-2016  22:23:30

                           ***********************       
                           *  WELCOME TO SIESTA  *       
                           ***********************       

reinit: Reading from standard input
************************** Dump of input data file ****************************
#(1) General system descriptors
SystemName            GRP_doping    # Descriptive name of the system
SystemLabel           GRP_doping    # Short name for naming files
%include STRUCT.fdf
%include KPT.fdf
%include BASIS.fdf
#%include TS.fdf # for transiesta calculation
#(4) DFT, Grid, SCF
XC.functional         GGA           # LDA or GGA (default = LDA)
XC.authors            PBE           # CA (Ceperley-Aldr) = PZ
                                    #    (Perdew-Zunger) - LDA - Default
                                    # PW92 (Perdew-Wang-92) - LDA
                                    # PBE (Perdew-Burke-Ernzerhof) - GGA
MeshCutoff            200.000000    Ry      # Default: 50.0 Ry ~ 0.444 Bohr
                                    #         100.0 Ry ~ 0.314 Bohr
MaxSCFIterations      500           # Default: 50
DM.MixingWeight       0.05          # Default: 0.25
DM.NumberPulay        10            # Default: 0
DM.PulayOnFile        F             # SystemLabel.P1, SystemLabel.P2
DM.Tolerance          1.d-4         # Default: 1.d-4
DM.UseSaveDM          .true.        # because of the bug
SCFMustConverge       .true.
NeglNonOverlapInt     F             # Default: F
#(5) Eigenvalue problem: order-N or diagonalization
SolutionMethod        Diagon        # or Transiesta
ElectronicTemperature 300.0 K       # Default: 300.0 K
#(6) Molecular dynamics and relaxations
#MD.TypeOfRun          CG            # Type of dynamics:
#MD.VariableCell       F
#MD.NumCGsteps         0           # 0 for single-point / 100 for gopt
#MD.MaxCGDispl         0.2 Bohr      # Default: 0.2 Bohr
#MD.MaxForceTol        0.02 eV/Ang   # Default: 0.04 eV/Ang
#MD.MaxStressTol       1.0 GPa       # Default: 1.0 GPa
# Geometry Constraints
#%block GeometryConstraints
#	position from 1 to 44
#%endblock GeometryConstraints
BandLinesScale   pi/a
%block BandLines
 1   0.00000000  0.00000000  0.00000000
50   0.00000000  0.07809418  0.00000000
50   0.04509075  0.07809242  0.00000000
20   0.00000000  0.00000000  0.00000000
%endblock BandLines
************************** End of input data file *****************************

reinit: -----------------------------------------------------------------------
reinit: System Name: GRP_doping
reinit: -----------------------------------------------------------------------
reinit: System Label: GRP_doping                                                  
reinit: -----------------------------------------------------------------------

initatom: Reading input for the pseudopotentials and atomic orbitals ----------
 Species number:            1  Label: N Atomic number:           7
 Species number:            2  Label: C Atomic number:           6
Ground state valence configuration:   2s02  2p03
Reading pseudopotential information in formatted form from N.psf

Valence configuration for pseudopotential generation:
2s( 2.00) rc: 1.48
2p( 3.00) rc: 1.48
3d( 0.00) rc: 1.48
4f( 0.00) rc: 1.48
Ground state valence configuration:   2s02  2p02
Reading pseudopotential information in formatted form from C.psf

Valence configuration for pseudopotential generation:
2s( 2.00) rc: 1.54
2p( 2.00) rc: 1.54
3d( 0.00) rc: 1.54
4f( 0.00) rc: 1.54
For N, standard SIESTA heuristics set lmxkb to 3
 (one more than the basis l, including polarization orbitals).
Use PS.lmax or PS.KBprojectors blocks to override.
For C, standard SIESTA heuristics set lmxkb to 3
 (one more than the basis l, including polarization orbitals).
Use PS.lmax or PS.KBprojectors blocks to override.

<basis_specs>
===============================================================================
N                    Z=   7    Mass=  14.010        Charge= 0.17977+309
Lmxo=1 Lmxkb= 3    BasisType=split      Semic=F
L=0  Nsemic=0  Cnfigmx=2
          n=1  nzeta=2  polorb=0
            splnorm:   0.15000    
               vcte:    0.0000    
               rinn:    0.0000    
                rcs:    0.0000      0.0000    
            lambdas:    1.0000      1.0000    
L=1  Nsemic=0  Cnfigmx=2
          n=1  nzeta=2  polorb=1
            splnorm:   0.15000    
               vcte:    0.0000    
               rinn:    0.0000    
                rcs:    0.0000      0.0000    
            lambdas:    1.0000      1.0000    
-------------------------------------------------------------------------------
L=0  Nkbl=1  erefs: 0.17977+309
L=1  Nkbl=1  erefs: 0.17977+309
L=2  Nkbl=1  erefs: 0.17977+309
L=3  Nkbl=1  erefs: 0.17977+309
===============================================================================
</basis_specs>

atom: Called for N                     (Z =   7)

read_vps: Pseudopotential generation method:
read_vps: ATM3      Troullier-Martins                       
Total valence charge:    5.00000

read_vps: Pseudopotential includes a core correction:
read_vps: Pseudo-core for xc-correction

xc_check: Exchange-correlation functional:
xc_check: GGA Perdew, Burke & Ernzerhof 1996
V l=0 = -2*Zval/r beyond r=  1.4606
V l=1 = -2*Zval/r beyond r=  1.4606
V l=2 = -2*Zval/r beyond r=  1.4606
V l=3 = -2*Zval/r beyond r=  1.4606
All V_l potentials equal beyond r=  1.4606
This should be close to max(r_c) in ps generation
All pots = -2*Zval/r beyond r=  1.4606

VLOCAL1: 99.0% of the norm of Vloc inside     20.347 Ry
VLOCAL1: 99.9% of the norm of Vloc inside     46.372 Ry
atom: Maximum radius for 4*pi*r*r*local-pseudopot. charge    1.76189
atom: Maximum radius for r*vlocal+2*Zval:    1.53550
GHOST: No ghost state for L =  0
GHOST: No ghost state for L =  1
GHOST: No ghost state for L =  2
GHOST: No ghost state for L =  3

KBgen: Kleinman-Bylander projectors: 
   l= 0   rc=  1.634559   el= -1.363963   Ekb=  5.296955   kbcos=  0.335621
   l= 1   rc=  1.614250   el= -0.521451   Ekb= -5.259161   kbcos= -0.433408
   l= 2   rc=  1.718383   el=  0.001991   Ekb= -1.271464   kbcos= -0.007566
   l= 3   rc=  1.761893   el=  0.003093   Ekb= -0.494769   kbcos= -0.001015

KBgen: Total number of  Kleinman-Bylander projectors:   16
atom: -------------------------------------------------------------------------

atom: SANKEY-TYPE ORBITALS:
atom: Selected multiple-zeta basis: split     

SPLIT: Orbitals with angular momentum L= 0

SPLIT: Basis orbitals for state 2s

SPLIT: PAO cut-off radius determined from an
SPLIT: energy shift=  0.007350 Ry

   izeta = 1
                 lambda =    1.000000
                     rc =    4.071465
                 energy =   -1.356470
                kinetic =    1.176977
    potential(screened) =   -2.533447
       potential(ionic) =   -8.057990

   izeta = 2
                 rmatch =    2.905100
              splitnorm =    0.150000
                 energy =   -1.158343
                kinetic =    1.813009
    potential(screened) =   -2.971352
       potential(ionic) =   -8.901931

SPLIT: Orbitals with angular momentum L= 1

SPLIT: Basis orbitals for state 2p

SPLIT: PAO cut-off radius determined from an
SPLIT: energy shift=  0.007350 Ry

   izeta = 1
                 lambda =    1.000000
                     rc =    4.972977
                 energy =   -0.513884
                kinetic =    3.441732
    potential(screened) =   -3.955616
       potential(ionic) =   -9.287901

   izeta = 2
                 rmatch =    3.054066
              splitnorm =    0.150000
                 energy =   -0.318226
                kinetic =    5.125348
    potential(screened) =   -5.443573
       potential(ionic) =  -11.380999

POLgen: Perturbative polarization orbital with L=  2

POLgen: Polarization orbital for state 2p

   izeta = 1
                     rc =    4.972977
                 energy =    1.607437
                kinetic =    3.268125
    potential(screened) =   -1.660688
       potential(ionic) =   -5.973652
atom: Total number of Sankey-type orbitals: 13

atm_pop: Valence configuration (for local Pseudopot. screening):
 2s( 2.00)                                                            
 2p( 3.00)                                                            
Vna: chval, zval:    5.00000   5.00000

Vna:  Cut-off radius for the neutral-atom potential:   4.972977
comcore: Pseudo-core radius Rcore=  1.554824

atom: _________________________________________________________________________

<basis_specs>
===============================================================================
C                    Z=   6    Mass=  12.010        Charge= 0.17977+309
Lmxo=1 Lmxkb= 3    BasisType=split      Semic=F
L=0  Nsemic=0  Cnfigmx=2
          n=1  nzeta=2  polorb=0
            splnorm:   0.15000    
               vcte:    0.0000    
               rinn:    0.0000    
                rcs:    0.0000      0.0000    
            lambdas:    1.0000      1.0000    
L=1  Nsemic=0  Cnfigmx=2
          n=1  nzeta=2  polorb=1
            splnorm:   0.15000    
               vcte:    0.0000    
               rinn:    0.0000    
                rcs:    0.0000      0.0000    
            lambdas:    1.0000      1.0000    
-------------------------------------------------------------------------------
L=0  Nkbl=1  erefs: 0.17977+309
L=1  Nkbl=1  erefs: 0.17977+309
L=2  Nkbl=1  erefs: 0.17977+309
L=3  Nkbl=1  erefs: 0.17977+309
===============================================================================
</basis_specs>

atom: Called for C                     (Z =   6)

read_vps: Pseudopotential generation method:
read_vps: ATM3      Troullier-Martins                       
Total valence charge:    4.00000

read_vps: Pseudopotential includes a core correction:
read_vps: Pseudo-core for xc-correction

xc_check: Exchange-correlation functional:
xc_check: GGA Perdew, Burke & Ernzerhof 1996
V l=0 = -2*Zval/r beyond r=  1.5227
V l=1 = -2*Zval/r beyond r=  1.5227
V l=2 = -2*Zval/r beyond r=  1.5227
V l=3 = -2*Zval/r beyond r=  1.5038
All V_l potentials equal beyond r=  1.5227
This should be close to max(r_c) in ps generation
All pots = -2*Zval/r beyond r=  1.5227

VLOCAL1: 99.0% of the norm of Vloc inside     18.722 Ry
VLOCAL1: 99.9% of the norm of Vloc inside     42.668 Ry
atom: Maximum radius for 4*pi*r*r*local-pseudopot. charge    1.83678
atom: Maximum radius for r*vlocal+2*Zval:    1.58088
GHOST: No ghost state for L =  0
GHOST: No ghost state for L =  1
GHOST: No ghost state for L =  2
GHOST: No ghost state for L =  3

KBgen: Kleinman-Bylander projectors: 
   l= 0   rc=  1.704034   el= -1.009801   Ekb=  5.335044   kbcos=  0.316824
   l= 1   rc=  1.704034   el= -0.388707   Ekb= -3.785862   kbcos= -0.366464
   l= 2   rc=  1.791422   el=  0.001971   Ekb= -0.970471   kbcos= -0.009212
   l= 3   rc=  1.859892   el=  0.003065   Ekb= -0.399525   kbcos= -0.001223

KBgen: Total number of  Kleinman-Bylander projectors:   16
atom: -------------------------------------------------------------------------

atom: SANKEY-TYPE ORBITALS:
atom: Selected multiple-zeta basis: split     

SPLIT: Orbitals with angular momentum L= 0

SPLIT: Basis orbitals for state 2s

SPLIT: PAO cut-off radius determined from an
SPLIT: energy shift=  0.007350 Ry

   izeta = 1
                 lambda =    1.000000
                     rc =    4.632753
                 energy =   -1.002270
                kinetic =    0.855760
    potential(screened) =   -1.858031
       potential(ionic) =   -5.417575

   izeta = 2
                 rmatch =    3.431921
              splitnorm =    0.150000
                 energy =   -0.867111
                kinetic =    1.300804
    potential(screened) =   -2.167915
       potential(ionic) =   -5.962684

SPLIT: Orbitals with angular momentum L= 1

SPLIT: Basis orbitals for state 2p

SPLIT: PAO cut-off radius determined from an
SPLIT: energy shift=  0.007350 Ry

   izeta = 1
                 lambda =    1.000000
                     rc =    5.658549
                 energy =   -0.381140
                kinetic =    2.399701
    potential(screened) =   -2.780841
       potential(ionic) =   -6.206085

   izeta = 2
                 rmatch =    3.653288
              splitnorm =    0.150000
                 energy =   -0.249149
                kinetic =    3.542762
    potential(screened) =   -3.791911
       potential(ionic) =   -7.581078

POLgen: Perturbative polarization orbital with L=  2

POLgen: Polarization orbital for state 2p

   izeta = 1
                     rc =    5.658549
                 energy =    1.109913
                kinetic =    2.304789
    potential(screened) =   -1.194876
       potential(ionic) =   -4.013592
atom: Total number of Sankey-type orbitals: 13

atm_pop: Valence configuration (for local Pseudopot. screening):
 2s( 2.00)                                                            
 2p( 2.00)                                                            
Vna: chval, zval:    4.00000   4.00000

Vna:  Cut-off radius for the neutral-atom potential:   5.658549
comcore: Pseudo-core radius Rcore=  1.791422

atom: _________________________________________________________________________

prinput: Basis input ----------------------------------------------------------

PAO.BasisType split     

%block ChemicalSpeciesLabel
    1    7 N                       # Species index, atomic number, species label
    2    6 C                       # Species index, atomic number, species label
%endblock ChemicalSpeciesLabel

%block PAO.Basis                 # Define Basis set
N                     2                    # Species label, number of l-shells
 n=2   0   2                         # n, l, Nzeta 
   4.071      2.905   
   1.000      1.000   
 n=2   1   2 P   1                   # n, l, Nzeta, Polarization, NzetaPol
   4.973      3.054   
   1.000      1.000   
C                     2                    # Species label, number of l-shells
 n=2   0   2                         # n, l, Nzeta 
   4.633      3.432   
   1.000      1.000   
 n=2   1   2 P   1                   # n, l, Nzeta, Polarization, NzetaPol
   5.659      3.653   
   1.000      1.000   
%endblock PAO.Basis

prinput: ----------------------------------------------------------------------

coor:   Atomic-coordinates input format  =     Fractional

siesta: Atomic coordinates (Bohr) and species
siesta:     -2.35420  38.89134   0.00000  1        1
siesta:      2.30256  38.89134   0.00000  1        2
siesta:      9.28770  29.48119   0.00000  1        3
siesta:      2.30256   6.62836   0.00000  1        4
siesta:      4.63094  13.34970   0.00000  1        5
siesta:      9.28770  21.41544   0.00000  1        6
siesta:     -2.35420   6.62836   0.00000  1        7
siesta:     -0.02582  13.34970   0.00000  1        8
siesta:      4.63094  21.41544   0.00000  1        9
siesta:     -4.68258  13.34970   0.00000  1       10
siesta:     -0.02582  21.41544   0.00000  1       11
siesta:     -4.68258  21.41544   0.00000  1       12
siesta:     -9.33934  21.41544   0.00000  1       13
siesta:     -9.33934  29.48119   0.00000  1       14
siesta:      4.63094  29.48119   0.00000  1       15
siesta:     -0.02582  29.48119   0.00000  1       16
siesta:     -4.68258  29.48119   0.00000  1       17
siesta:     -0.02582   2.59549   0.00000  2       18
siesta:     -0.02582   5.28395   0.00000  2       19
siesta:     -2.35420  41.57980   0.00000  2       20
siesta:      2.30256  41.57980   0.00000  2       21
siesta:      4.63094  34.85847   0.00000  2       22
siesta:      4.63094  37.54693   0.00000  2       23
siesta:      6.95932  30.82560   0.00000  2       24
siesta:      6.95932  33.51406   0.00000  2       25
siesta:      9.28770  26.79272   0.00000  2       26
siesta:     -4.68258  34.85847   0.00000  2       27
siesta:     -4.68258  37.54693   0.00000  2       28
siesta:      2.30256   9.31683   0.00000  2       29
siesta:      4.63094  10.66124   0.00000  2       30
siesta:      6.95932  14.69411   0.00000  2       31
siesta:      6.95932  17.38257   0.00000  2       32
siesta:      9.28770  18.72698   0.00000  2       33
siesta:     11.61608  22.75985   0.00000  2       34
siesta:     11.61608  25.44831   0.00000  2       35
siesta:     -2.35420   9.31683   0.00000  2       36
siesta:     -0.02582  10.66124   0.00000  2       37
siesta:      2.30256  14.69411   0.00000  2       38
siesta:      2.30256  17.38257   0.00000  2       39
siesta:      4.63094  18.72698   0.00000  2       40
siesta:      6.95932  22.75985   0.00000  2       41
siesta:      6.95932  25.44831   0.00000  2       42
siesta:     -4.68258  10.66124   0.00000  2       43
siesta:     -2.35420  14.69411   0.00000  2       44
siesta:     -2.35420  17.38257   0.00000  2       45
siesta:     -0.02582  18.72698   0.00000  2       46
siesta:      2.30256  22.75985   0.00000  2       47
siesta:      2.30256  25.44831   0.00000  2       48
siesta:     -7.01096  14.69411   0.00000  2       49
siesta:     -7.01096  17.38257   0.00000  2       50
siesta:     -4.68258  18.72698   0.00000  2       51
siesta:     -2.35420  22.75985   0.00000  2       52
siesta:     -2.35420  25.44831   0.00000  2       53
siesta:     -9.33934  18.72698   0.00000  2       54
siesta:     -7.01096  22.75985   0.00000  2       55
siesta:     -7.01096  25.44831   0.00000  2       56
siesta:    -11.66772  22.75985   0.00000  2       57
siesta:    -11.66772  25.44831   0.00000  2       58
siesta:     -9.33934  26.79272   0.00000  2       59
siesta:      4.63094  26.79272   0.00000  2       60
siesta:     -0.02582  26.79272   0.00000  2       61
siesta:     -4.68258  26.79272   0.00000  2       62
siesta:      2.30256  30.82560   0.00000  2       63
siesta:      2.30256  33.51406   0.00000  2       64
siesta:     -2.35420  30.82560   0.00000  2       65
siesta:     -2.35420  33.51406   0.00000  2       66
siesta:     -7.01096  30.82560   0.00000  2       67
siesta:     -7.01096  33.51406   0.00000  2       68
siesta:     -0.02582  34.85847   0.00000  2       69
siesta:     -0.02582  37.54693   0.00000  2       70
siesta:     -0.02582  42.92421   0.00000  2       71
siesta:     -0.02582  45.61267   0.00000  2       72

siesta: System type = slab      

initatomlists: Number of atoms, orbitals, and projectors:     72   936  1152

siesta: ******************** Simulation parameters ****************************
siesta:
siesta: The following are some of the parameters of the simulation.
siesta: A complete list of the parameters used, including default values,
siesta: can be found in file out.fdf
siesta:
redata: Non-Collinear-spin run           =     F
redata: SpinPolarized (Up/Down) run      =     F
redata: Number of spin components        =     1
redata: Long output                      =     F
redata: Number of Atomic Species         =        2
redata: Charge density info will appear in .RHO file
redata: Write Mulliken Pop.              =     NO
redata: Mesh Cutoff                      =   200.0000  Ry
redata: Net charge of the system         =     0.0000 |e|
redata: Max. number of SCF Iter          =      500
redata: SCF convergence failure will abort job
redata: Performing Pulay mixing using    =    10 iterations
redata: Mix DM in first SCF step ?       =     F
redata: Write Pulay info on disk?        =     F
redata: Discard 1st Pulay DM after  kick =     F
redata: New DM Mixing Weight             =     0.0500
redata: New DM Occupancy tolerance       = 0.000000000001
redata: No kicks to SCF
redata: DM Mixing Weight for Kicks       =     0.5000
redata: DM Tolerance for SCF             =     0.000100
redata: Require Energy convergence for SCF =     F
redata: DM Energy tolerance for SCF      =     0.000100 eV
redata: Require Harris convergence for SCF =     F
redata: DM Harris energy tolerance for SCF =     0.000100 eV
redata: Using Saved Data (generic)   =     F
redata: Use continuation files for DM    =     T
redata: Neglect nonoverlap interactions  =     F
redata: Method of Calculation            =     Diagonalization
redata: Divide and Conquer               =     T
redata: Electronic Temperature           =     0.0019  Ry
redata: Fix the spin of the system       =     F
redata: Dynamics option                  =     Verlet MD run
redata: Initial MD time step             =        1
redata:   Final MD time step             =        1
redata: Length of MD time step           =     1.0000  fs
redata: Initial Temperature of MD run    =     0.0000  K
redata: Perform a MD quench              =     F
redata: ***********************************************************************
Total number of electrons:   305.000000
Total ionic charge:   305.000000

* ProcessorY, Blocksize:    2  24

k-point displ. along   1 input, could be:     0.50    0.00
k-point displ. along   2 input, could be:     0.50    0.00
 Kpoints in:          231 . Kpoints trimmed:          231

siesta: k-grid: Number of k-points =   231
siesta: k-grid: Cutoff (effective) =     5.000 Ang
siesta: k-grid: Supercell and displacements
siesta: k-grid:   21   0   0      0.500
siesta: k-grid:    0  21   0      0.500
siesta: k-grid:    0   0   1      0.000
Naive supercell factors:     2    2    2

superc: Internal auxiliary supercell:     2 x     2 x     2  =       8
superc: Number of atoms, orbitals, and projectors:    576   7488   9216

* Maximum dynamic memory allocated =     4 MB

siesta:                 ==============================
                            Begin MD step =      1
                        ==============================

superc: Internal auxiliary supercell:     2 x     2 x     2  =       8
superc: Number of atoms, orbitals, and projectors:    576   7488   9216

outcell: Unit cell vectors (Ang):
       12.804619    7.392750    0.000000
        0.000000   14.785500    0.000000
        0.000000    0.000000   10.000000

outcell: Cell vector modules (Ang)   :   14.785500   14.785500   10.000000
outcell: Cell angles (23,13,12) (deg):     90.0000     90.0000     60.0000
outcell: Cell volume (Ang**3)        :   1893.2269
New_DM. Step:     1
Initializing Density Matrix...

InitMesh: MESH =   120 x   120 x    90 =     1296000
InitMesh: Mesh cutoff (required, used) =   200.000   223.865 Ry

* Maximum dynamic memory allocated =   187 MB

stepf: Fermi-Dirac step function

siesta: Program's energy decomposition (eV):
siesta: Ebs     =     -6221.550415
siesta: Eions   =     21135.707422
siesta: Ena     =      4891.749096
siesta: Ekin    =      7804.862351
siesta: Enl     =       127.045642
siesta: DEna    =        -0.000015
siesta: DUscf   =         0.000000
siesta: DUext   =         0.000000
siesta: Exc     =     -4597.896946
siesta: eta*DQ  =         0.000000
siesta: Emadel  =         0.000000
siesta: Emeta   =         0.000000
siesta: Emolmec =         0.000000
siesta: Ekinion =         0.000000
siesta: Eharris =    -12535.115312
siesta: Etot    =    -12909.947295
siesta: FreeEng =    -12909.947295

siesta: iscf   Eharris(eV)      E_KS(eV)   FreeEng(eV)   dDmax  Ef(eV)
siesta:    1   -12535.1153   -12909.9473   -12909.9473  7.4343 -7.0647
timer: Routine,Calls,Time,% = IterSCF        1    3434.132  99.70
elaps: Routine,Calls,Wall,% = IterSCF        1     430.077  99.70
siesta:    2   -15392.6823   -12048.0709   -12048.1314  8.4210 -2.1437
siesta:    3   -12462.8150   -12619.4192   -12619.4938  1.5332 -3.7754
siesta:    4   -12424.1416   -12555.2096   -12555.2568  0.9654 -3.7208
siesta:    5   -12395.8230   -12514.5490   -12514.6046  0.8148 -3.6672
siesta:    6   -12391.7863   -12492.9631   -12493.0285  0.8067 -3.6735
siesta:    7   -12384.8644   -12461.6246   -12461.6770  0.5951 -4.0120
siesta:    8   -12384.1506   -12447.2636   -12447.3560  0.5070 -4.0116
siesta:    9   -12384.5978   -12427.3495   -12427.4234  0.5085 -3.9384
siesta:   10   -12386.0455   -12395.5858   -12395.6630  0.2295 -3.9611
siesta:   11   -12384.7691   -12388.4144   -12388.4623  0.1792 -3.9363
siesta:   12   -12383.7044   -12381.4445   -12381.5210  0.1378 -3.9140
siesta:   13   -12383.3972   -12378.1726   -12378.2683  0.2552 -3.9268
siesta:   14   -12383.1818   -12379.0093   -12379.0776  0.1748 -3.9209
siesta:   15   -12383.0759   -12379.0813   -12379.1704  0.1065 -3.9406
siesta:   16   -12382.9885   -12381.1143   -12381.1929  0.0849 -3.9495
siesta:   17   -12382.9602   -12381.2660   -12381.3487  0.1014 -3.9657
siesta:   18   -12382.9010   -12381.1232   -12381.2051  0.0563 -3.9584
siesta:   19   -12382.8911   -12381.9989   -12382.1036  0.0461 -3.9607
siesta:   20   -12382.8982   -12382.9034   -12383.0084  0.0431 -3.9601
siesta:   21   -12382.8943   -12382.7202   -12382.8273  0.0376 -3.9577
siesta:   22   -12382.8960   -12382.3588   -12382.4566  0.0315 -3.9555
siesta:   23   -12382.8848   -12382.4570   -12382.5529  0.0191 -3.9511
siesta:   24   -12382.8828   -12382.5440   -12382.6499  0.0195 -3.9507
siesta:   25   -12382.8777   -12382.6895   -12382.7918  0.0190 -3.9492
siesta:   26   -12382.8803   -12382.4044   -12382.5119  0.0111 -3.9505
siesta:   27   -12382.8821   -12382.3664   -12382.4695  0.0093 -3.9526
siesta:   28   -12382.8816   -12382.4761   -12382.5767  0.0061 -3.9547
siesta:   29   -12382.8817   -12382.5646   -12382.6656  0.0033 -3.9554
siesta:   30   -12382.8818   -12382.6103   -12382.7112  0.0023 -3.9556
siesta:   31   -12382.8812   -12382.7020   -12382.8027  0.0017 -3.9555
siesta:   32   -12382.8813   -12382.7283   -12382.8294  0.0012 -3.9556
siesta:   33   -12382.8812   -12382.7702   -12382.8712  0.0005 -3.9556
siesta:   34   -12382.8813   -12382.7981   -12382.8992  0.0003 -3.9557
siesta:   35   -12382.8813   -12382.8293   -12382.9303  0.0003 -3.9557
siesta:   36   -12382.8812   -12382.8499   -12382.9509  0.0002 -3.9556
siesta:   37   -12382.8813   -12382.8615   -12382.9625  0.0002 -3.9556
siesta:   38   -12382.8813   -12382.8676   -12382.9686  0.0001 -3.9555
siesta:   39   -12382.8813   -12382.8718   -12382.9729  0.0001 -3.9555
siesta:   40   -12382.8813   -12382.8745   -12382.9756  0.0001 -3.9555

siesta: E_KS(eV) =           -12382.8797

siesta: E_KS - E_eggbox =    -12382.8797

siesta: Atomic forces (eV/Ang):
----------------------------------------
   Tot   -0.248238   -0.201518    0.000000
----------------------------------------
   Max  685.471799
   Res  173.247824    sqrt( Sum f_i^2 / 3N )
----------------------------------------
   Max  685.471799    constrained

Stress-tensor-Voigt (kbar):     -619.00    -3087.70       -0.05        0.22        0.00        0.00
(Free)E + p*V (eV/cell)   -10922.9595
Target enthalpy (eV/cell)   -12382.9807

siesta: Stress tensor (static) (eV/Ang**3):
        -0.386345    0.000137    0.000000
         0.000137   -1.927171    0.000000
         0.000000    0.000000   -0.000029

siesta: Pressure (static):       1235.58203556  kBar

siesta: Stress tensor (total) (eV/Ang**3):
        -0.386345    0.000137    0.000000
         0.000137   -1.927171    0.000000
         0.000000    0.000000   -0.000029

siesta: Pressure (total):       1235.58203556  kBar

siesta: Temp_ion =       0.000 K

* Maximum dynamic memory allocated =   204 MB
Computing bands...

siesta: Program's energy decomposition (eV):
siesta: Ebs     =     -4965.795191
siesta: Eions   =     21135.707422
siesta: Ena     =      4891.749096
siesta: Ekin    =     10887.266294
siesta: Enl     =     -1573.915987
siesta: DEna    =      -787.158714
siesta: DUscf   =       105.422555
siesta: DUext   =         0.000000
siesta: Exc     =     -4770.535490
siesta: eta*DQ  =         0.000000
siesta: Emadel  =         0.000000
siesta: Emeta   =         0.000000
siesta: Emolmec =         0.000000
siesta: Ekinion =         0.000000
siesta: Eharris =    -12382.881278
siesta: Etot    =    -12382.879668
siesta: FreeEng =    -12382.980710

siesta: Final energy (eV):
siesta:  Band Struct. =   -4965.795191
siesta:       Kinetic =   10887.266294
siesta:       Hartree =   35284.718948
siesta:    Ext. field =       0.000000
siesta:   Exch.-corr. =   -4770.535490
siesta:  Ion-electron =  -80997.913332
siesta:       Ion-ion =   27213.583911
siesta:       Ekinion =       0.000000
siesta:         Total =  -12382.879668

siesta: Atomic forces (eV/Ang):
siesta:      1    3.402083  119.008286    0.000000
siesta:      2   -3.382122  118.973090    0.000000
siesta:      3   -2.238434   -1.165768    0.000000
siesta:      4   25.411030  657.303722    0.000000
siesta:      5   29.253254   -4.293947    0.000000
siesta:      6   -0.134593   -2.101272    0.000000
siesta:      7  -25.181516  657.313793    0.000000
siesta:      8   -0.062746 -119.047242    0.000000
siesta:      9   -0.263077   -0.310753    0.000000
siesta:     10  -29.398247   -4.238832    0.000000
siesta:     11   -0.025007   -2.032055    0.000000
siesta:     12    0.221782   -0.289851    0.000000
siesta:     13    0.104713   -2.101183    0.000000
siesta:     14    2.224079   -1.152825    0.000000
siesta:     15   -0.346849   -4.207188    0.000000
siesta:     16   -0.019328 -685.471799    0.000000
siesta:     17    0.235733   -4.216706    0.000000
siesta:     18   -0.042265  649.001542    0.000000
siesta:     19    0.007897 -119.920348    0.000000
siesta:     20  -10.676854 -542.569708    0.000000
siesta:     21   10.709473 -542.569641    0.000000
siesta:     22   25.238050    7.129161    0.000000
siesta:     23   31.177770 -552.353166    0.000000
siesta:     24    2.095777   -1.071202    0.000000
siesta:     25   -2.367214   -0.227650    0.000000
siesta:     26    1.516905    4.436538    0.000000
siesta:     27  -25.256495    7.120048    0.000000
siesta:     28  -31.203904 -552.323929    0.000000
siesta:     29    1.205202 -118.448350    0.000000
siesta:     30   20.672789  548.087166    0.000000
siesta:     31   -2.456128   -1.213392    0.000000
siesta:     32    0.490344    0.343064    0.000000
siesta:     33    0.787068    0.668972    0.000000
siesta:     34   -1.094999    5.249238    0.000000
siesta:     35   -0.582068   -5.851911    0.000000
siesta:     36   -1.214782 -118.457129    0.000000
siesta:     37    0.020573  543.200147    0.000000
siesta:     38   16.825784  572.590419    0.000000
siesta:     39   24.885507   -6.030577    0.000000
siesta:     40   -2.409781    2.916689    0.000000
siesta:     41    0.018567    0.913362    0.000000
siesta:     42   -0.660514   -1.594982    0.000000
siesta:     43  -20.680805  548.094376    0.000000
siesta:     44  -16.827600  572.570231    0.000000
siesta:     45  -24.933386   -6.023673    0.000000
siesta:     46    0.010807  564.468610    0.000000
siesta:     47    1.552649    0.228536    0.000000
siesta:     48    0.590438    0.400153    0.000000
siesta:     49    2.462497   -1.227033    0.000000
siesta:     50   -0.480282    0.333388    0.000000
siesta:     51    2.385795    2.953949    0.000000
siesta:     52   -1.538119    0.218304    0.000000
siesta:     53   -0.590889    0.394626    0.000000
siesta:     54   -0.781704    0.675919    0.000000
siesta:     55   -0.021900    0.918769    0.000000
siesta:     56    0.650113   -1.594145    0.000000
siesta:     57    1.109117    5.251885    0.000000
siesta:     58    0.586993   -5.855981    0.000000
siesta:     59   -1.508897    4.422071    0.000000
siesta:     60    0.329398    0.672262    0.000000
siesta:     61   -0.009325    0.344598    0.000000
siesta:     62   -0.313114    0.691244    0.000000
siesta:     63   29.210305    9.343049    0.000000
siesta:     64    4.500046 -677.112138    0.000000
siesta:     65  -29.218419    9.336463    0.000000
siesta:     66   -4.524080 -677.125489    0.000000
siesta:     67   -2.080603   -1.078825    0.000000
siesta:     68    2.369081   -0.207878    0.000000
siesta:     69    0.019796  130.551986    0.000000
siesta:     70    0.007071 -561.163754    0.000000
siesta:     71   -0.005933  124.234291    0.000000
siesta:     72   -0.004746 -545.911142    0.000000
siesta: ----------------------------------------
siesta:    Tot   -0.248238   -0.201518    0.000000

siesta: Stress tensor (static) (eV/Ang**3):
siesta:    -0.386345    0.000137    0.000000
siesta:     0.000137   -1.927171    0.000000
siesta:     0.000000    0.000000   -0.000029

siesta: Cell volume =       1893.226884 Ang**3

siesta: Pressure (static):
siesta:                Solid            Molecule  Units
siesta:           0.00839915          0.13649821  Ry/Bohr**3
siesta:           0.77118131         12.53280117  eV/Ang**3
siesta:        1235.58203556      20079.97822900  kBar
(Free)E+ p_basis*V_orbitals  =      -12354.673473
(Free)Eharris+ p_basis*V_orbitals  =      -12354.680209

siesta: Electric dipole (a.u.)  =    0.000000    0.000000    0.000000
siesta: Electric dipole (Debye) =    0.000000    0.000000    0.000000

* Maximum dynamic memory allocated : Node    0 =   204 MB
* Maximum dynamic memory allocated : Node    1 =    72 MB
* Maximum dynamic memory allocated : Node    2 =    73 MB
* Maximum dynamic memory allocated : Node    3 =   193 MB
* Maximum dynamic memory allocated : Node    4 =   189 MB
* Maximum dynamic memory allocated : Node    5 =    71 MB
* Maximum dynamic memory allocated : Node    6 =    72 MB
* Maximum dynamic memory allocated : Node    7 =   173 MB

* Maximum memory occured during matrixMtoO                    

timer: CPU execution times:
timer:  Routine       Calls   Time/call    Tot.time        %
timer:  siesta            1  135137.297  135137.297   100.00
timer:  Setup             1       2.676       2.676     0.00
timer:  bands             3     243.822     731.467     0.54
timer:  writewave         1       0.017       0.017     0.00
timer:  KSV_init          1       0.000       0.000     0.00
timer:  IterMD            1  134397.956  134397.956    99.45
timer:  hsparse           1       0.278       0.278     0.00
timer:  overlap           1       7.122       7.122     0.01
timer:  IterSCF          40    3356.160  134246.415    99.34
timer:  kinefsm           2       3.668       7.336     0.01
timer:  nlefsm            2      17.458      34.916     0.03
timer:  DHSCF            41      75.485    3094.898     2.29
timer:  DHSCF1            1       0.744       0.744     0.00
timer:  DHSCF2            1      30.849      30.849     0.02
timer:  REORD           330       0.005       1.613     0.00
timer:  POISON           42       0.878      36.856     0.03
timer:  DHSCF3           41      73.995    3033.808     2.24
timer:  rhoofd           41      15.814     648.384     0.48
timer:  cellXC           41       3.211     131.663     0.10
timer:  vmat             41      34.383    1409.723     1.04
timer:  MolMec            2       0.000       0.000     0.00
timer:  diagon           40    3279.904  131196.175    97.08
timer:  c-eigval       9361       6.030   56444.196    41.77
timer:  c-buildHS      9361       0.047     441.311     0.33
timer:  cdiag         18601       6.175  114856.546    84.99
timer:  cdiag1        18601       0.386    7184.397     5.32
timer:  cdiag2        18601       1.769   32909.320    24.35
timer:  cdiag3        18601       3.735   69475.958    51.41
timer:  cdiag4        18601       0.150    2795.003     2.07
timer:  c-eigvec       9240       6.406   59194.020    43.80
timer:  c-buildD       9240       1.758   16242.214    12.02
timer:  DHSCF4            1      28.760      28.760     0.02
timer:  dfscf             1      26.881      26.881     0.02
timer:  overfsm           1       0.381       0.381     0.00
timer:  optical           1       4.547       4.547     0.00
  

elaps: ELAPSED times:
elaps:  Routine       Calls   Time/call    Tot.time        %
elaps:  siesta            1   16923.410   16923.410   100.00
elaps:  Setup             1       0.335       0.335     0.00
elaps:  bands             3      30.551      91.654     0.54
elaps:  writewave         1       0.002       0.002     0.00
elaps:  KSV_init          1       0.000       0.000     0.00
elaps:  IterMD            1   16830.819   16830.819    99.45
elaps:  hsparse           1       0.037       0.037     0.00
elaps:  overlap           1       0.896       0.896     0.01
elaps:  IterSCF          40     420.296   16811.843    99.34
elaps:  kinefsm           2       0.463       0.926     0.01
elaps:  nlefsm            2       2.149       4.298     0.03
elaps:  DHSCF            41       9.546     391.399     2.31
elaps:  DHSCF1            1       0.095       0.095     0.00
elaps:  DHSCF2            1       3.863       3.863     0.02
elaps:  REORD           330       0.001       0.217     0.00
elaps:  POISON           42       0.110       4.627     0.03
elaps:  DHSCF3           41       9.267     379.956     2.25
elaps:  rhoofd           41       4.409     180.754     1.07
elaps:  cellXC           41       0.402      16.472     0.10
elaps:  vmat             41       4.306     176.565     1.04
elaps:  MolMec            2       0.000       0.000     0.00
elaps:  diagon           40     410.757   16430.276    97.09
elaps:  c-eigval       9361       0.755    7068.499    41.77
elaps:  c-buildHS      9361       0.007      62.055     0.37
elaps:  cdiag         18601       0.767   14264.964    84.29
elaps:  cdiag1        18601       0.049     907.390     5.36
elaps:  cdiag2        18601       0.222    4122.229    24.36
elaps:  cdiag3        18601       0.468    8711.945    51.48
elaps:  cdiag4        18601       0.018     341.554     2.02
elaps:  c-eigvec       9240       0.791    7305.559    43.17
elaps:  c-buildD       9240       0.232    2141.130    12.65
elaps:  DHSCF4            1       7.391       7.391     0.04
elaps:  dfscf             1       6.987       6.987     0.04
elaps:  overfsm           1       0.051       0.051     0.00
elaps:  optical           1       0.000       0.000     0.00
  
>> End of run:   2-MAY-2016   3:05:34
