Siesta Version:                                        siesta-3.2-pl-3
Architecture  : x86_64-unknown-linux-gnu--unknown
Compiler flags: mpiifort -g -O2 -fPIC -xSSE4.1 -fp-model source -shared-intel 
PARALLEL version

* Running on    8 nodes in parallel
>> Start of run:  24-APR-2016   7:33:35

                           ***********************       
                           *  WELCOME TO SIESTA  *       
                           ***********************       

reinit: Reading from standard input
************************** Dump of input data file ****************************
#(1) General system descriptors
SystemName            GRP_doping    # Descriptive name of the system
SystemLabel           GRP_doping    # Short name for naming files
%include STRUCT.fdf
%include KPT.fdf
%include BASIS.fdf
#%include TS.fdf # for transiesta calculation
#(4) DFT, Grid, SCF
XC.functional         GGA           # LDA or GGA (default = LDA)
XC.authors            PBE           # CA (Ceperley-Aldr) = PZ
                                    #    (Perdew-Zunger) - LDA - Default
                                    # PW92 (Perdew-Wang-92) - LDA
                                    # PBE (Perdew-Burke-Ernzerhof) - GGA
MeshCutoff            200.000000    Ry      # Default: 50.0 Ry ~ 0.444 Bohr
                                    #         100.0 Ry ~ 0.314 Bohr
MaxSCFIterations      500           # Default: 50
DM.MixingWeight       0.05          # Default: 0.25
DM.NumberPulay        10            # Default: 0
DM.PulayOnFile        F             # SystemLabel.P1, SystemLabel.P2
DM.Tolerance          1.d-4         # Default: 1.d-4
DM.UseSaveDM          .true.        # because of the bug
SCFMustConverge       .true.
NeglNonOverlapInt     F             # Default: F
#(5) Eigenvalue problem: order-N or diagonalization
SolutionMethod        Diagon        # or Transiesta
ElectronicTemperature 300.0 K       # Default: 300.0 K
#(6) Molecular dynamics and relaxations
#MD.TypeOfRun          CG            # Type of dynamics:
#MD.VariableCell       F
#MD.NumCGsteps         0           # 0 for single-point / 100 for gopt
#MD.MaxCGDispl         0.2 Bohr      # Default: 0.2 Bohr
#MD.MaxForceTol        0.02 eV/Ang   # Default: 0.04 eV/Ang
#MD.MaxStressTol       1.0 GPa       # Default: 1.0 GPa
# Geometry Constraints
#%block GeometryConstraints
#	position from 1 to 44
#%endblock GeometryConstraints
BandLinesScale   pi/a
%block BandLines
 1   0.00000000  0.00000000  0.00000000
50   0.00000000  0.07809418  0.00000000
50   0.04509075  0.07809242  0.00000000
20   0.00000000  0.00000000  0.00000000
%endblock BandLines
************************** End of input data file *****************************

reinit: -----------------------------------------------------------------------
reinit: System Name: GRP_doping
reinit: -----------------------------------------------------------------------
reinit: System Label: GRP_doping                                                  
reinit: -----------------------------------------------------------------------

initatom: Reading input for the pseudopotentials and atomic orbitals ----------
 Species number:            1  Label: B Atomic number:           5
 Species number:            2  Label: C Atomic number:           6
Ground state valence configuration:   2s02  2p01
Reading pseudopotential information in formatted form from B.psf

Valence configuration for pseudopotential generation:
2s( 2.00) rc: 1.74
2p( 1.00) rc: 1.74
3d( 0.00) rc: 1.74
4f( 0.00) rc: 1.74
Ground state valence configuration:   2s02  2p02
Reading pseudopotential information in formatted form from C.psf

Valence configuration for pseudopotential generation:
2s( 2.00) rc: 1.54
2p( 2.00) rc: 1.54
3d( 0.00) rc: 1.54
4f( 0.00) rc: 1.54
For B, standard SIESTA heuristics set lmxkb to 3
 (one more than the basis l, including polarization orbitals).
Use PS.lmax or PS.KBprojectors blocks to override.
For C, standard SIESTA heuristics set lmxkb to 3
 (one more than the basis l, including polarization orbitals).
Use PS.lmax or PS.KBprojectors blocks to override.

<basis_specs>
===============================================================================
B                    Z=   5    Mass=  10.810        Charge= 0.17977+309
Lmxo=1 Lmxkb= 3    BasisType=split      Semic=F
L=0  Nsemic=0  Cnfigmx=2
          n=1  nzeta=2  polorb=0
            splnorm:   0.15000    
               vcte:    0.0000    
               rinn:    0.0000    
                rcs:    0.0000      0.0000    
            lambdas:    1.0000      1.0000    
L=1  Nsemic=0  Cnfigmx=2
          n=1  nzeta=2  polorb=1
            splnorm:   0.15000    
               vcte:    0.0000    
               rinn:    0.0000    
                rcs:    0.0000      0.0000    
            lambdas:    1.0000      1.0000    
-------------------------------------------------------------------------------
L=0  Nkbl=1  erefs: 0.17977+309
L=1  Nkbl=1  erefs: 0.17977+309
L=2  Nkbl=1  erefs: 0.17977+309
L=3  Nkbl=1  erefs: 0.17977+309
===============================================================================
</basis_specs>

atom: Called for B                     (Z =   5)

read_vps: Pseudopotential generation method:
read_vps: ATM3      Troullier-Martins                       
Total valence charge:    3.00000

read_vps: Pseudopotential includes a core correction:
read_vps: Pseudo-core for xc-correction

xc_check: Exchange-correlation functional:
xc_check: GGA Perdew, Burke & Ernzerhof 1996
V l=0 = -2*Zval/r beyond r=  1.7165
V l=1 = -2*Zval/r beyond r=  1.7165
V l=2 = -2*Zval/r beyond r=  1.7165
V l=3 = -2*Zval/r beyond r=  1.6951
All V_l potentials equal beyond r=  1.7165
This should be close to max(r_c) in ps generation
All pots = -2*Zval/r beyond r=  1.7165

VLOCAL1: 99.0% of the norm of Vloc inside     14.733 Ry
VLOCAL1: 99.9% of the norm of Vloc inside     33.577 Ry
atom: Maximum radius for 4*pi*r*r*local-pseudopot. charge    2.04484
atom: Maximum radius for r*vlocal+2*Zval:    1.75994
GHOST: No ghost state for L =  0
GHOST: No ghost state for L =  1
GHOST: No ghost state for L =  2
GHOST: No ghost state for L =  3

KBgen: Kleinman-Bylander projectors: 
   l= 0   rc=  1.897051   el= -0.693730   Ekb=  4.595746   kbcos=  0.286105
   l= 1   rc=  1.920920   el= -0.265236   Ekb= -2.350715   kbcos= -0.315747
   l= 2   rc=  2.044840   el=  0.002055   Ekb= -0.690767   kbcos= -0.013822
   l= 3   rc=  2.149707   el=  0.003188   Ekb= -0.315358   kbcos= -0.002055

KBgen: Total number of  Kleinman-Bylander projectors:   16
atom: -------------------------------------------------------------------------

atom: SANKEY-TYPE ORBITALS:
atom: Selected multiple-zeta basis: split     

SPLIT: Orbitals with angular momentum L= 0

SPLIT: Basis orbitals for state 2s

SPLIT: PAO cut-off radius determined from an
SPLIT: energy shift=  0.007350 Ry

   izeta = 1
                 lambda =    1.000000
                     rc =    5.422032
                 energy =   -0.686029
                kinetic =    0.576707
    potential(screened) =   -1.262736
       potential(ionic) =   -3.271094

   izeta = 2
                 rmatch =    4.222573
              splitnorm =    0.150000
                 energy =   -0.602132
                kinetic =    0.858975
    potential(screened) =   -1.461107
       potential(ionic) =   -3.582536

SPLIT: Orbitals with angular momentum L= 1

SPLIT: Basis orbitals for state 2p

SPLIT: PAO cut-off radius determined from an
SPLIT: energy shift=  0.007350 Ry

   izeta = 1
                 lambda =    1.000000
                     rc =    6.790259
                 energy =   -0.258578
                kinetic =    1.481412
    potential(screened) =   -1.739989
       potential(ionic) =   -3.657461

   izeta = 2
                 rmatch =    4.608740
              splitnorm =    0.150000
                 energy =   -0.173757
                kinetic =    2.186690
    potential(screened) =   -2.360447
       potential(ionic) =   -4.464260

POLgen: Perturbative polarization orbital with L=  2

POLgen: Polarization orbital for state 2p

   izeta = 1
                     rc =    6.790259
                 energy =    0.684082
                kinetic =    1.471481
    potential(screened) =   -0.787399
       potential(ionic) =   -2.406985
atom: Total number of Sankey-type orbitals: 13

atm_pop: Valence configuration (for local Pseudopot. screening):
 2s( 2.00)                                                            
 2p( 1.00)                                                            
Vna: chval, zval:    3.00000   3.00000

Vna:  Cut-off radius for the neutral-atom potential:   6.790259
comcore: Pseudo-core radius Rcore=  2.122997

atom: _________________________________________________________________________

<basis_specs>
===============================================================================
C                    Z=   6    Mass=  12.010        Charge= 0.17977+309
Lmxo=1 Lmxkb= 3    BasisType=split      Semic=F
L=0  Nsemic=0  Cnfigmx=2
          n=1  nzeta=2  polorb=0
            splnorm:   0.15000    
               vcte:    0.0000    
               rinn:    0.0000    
                rcs:    0.0000      0.0000    
            lambdas:    1.0000      1.0000    
L=1  Nsemic=0  Cnfigmx=2
          n=1  nzeta=2  polorb=1
            splnorm:   0.15000    
               vcte:    0.0000    
               rinn:    0.0000    
                rcs:    0.0000      0.0000    
            lambdas:    1.0000      1.0000    
-------------------------------------------------------------------------------
L=0  Nkbl=1  erefs: 0.17977+309
L=1  Nkbl=1  erefs: 0.17977+309
L=2  Nkbl=1  erefs: 0.17977+309
L=3  Nkbl=1  erefs: 0.17977+309
===============================================================================
</basis_specs>

atom: Called for C                     (Z =   6)

read_vps: Pseudopotential generation method:
read_vps: ATM3      Troullier-Martins                       
Total valence charge:    4.00000

read_vps: Pseudopotential includes a core correction:
read_vps: Pseudo-core for xc-correction

xc_check: Exchange-correlation functional:
xc_check: GGA Perdew, Burke & Ernzerhof 1996
V l=0 = -2*Zval/r beyond r=  1.5227
V l=1 = -2*Zval/r beyond r=  1.5227
V l=2 = -2*Zval/r beyond r=  1.5227
V l=3 = -2*Zval/r beyond r=  1.5038
All V_l potentials equal beyond r=  1.5227
This should be close to max(r_c) in ps generation
All pots = -2*Zval/r beyond r=  1.5227

VLOCAL1: 99.0% of the norm of Vloc inside     18.722 Ry
VLOCAL1: 99.9% of the norm of Vloc inside     42.668 Ry
atom: Maximum radius for 4*pi*r*r*local-pseudopot. charge    1.83678
atom: Maximum radius for r*vlocal+2*Zval:    1.58088
GHOST: No ghost state for L =  0
GHOST: No ghost state for L =  1
GHOST: No ghost state for L =  2
GHOST: No ghost state for L =  3

KBgen: Kleinman-Bylander projectors: 
   l= 0   rc=  1.704034   el= -1.009801   Ekb=  5.335044   kbcos=  0.316824
   l= 1   rc=  1.704034   el= -0.388707   Ekb= -3.785862   kbcos= -0.366464
   l= 2   rc=  1.791422   el=  0.001971   Ekb= -0.970471   kbcos= -0.009212
   l= 3   rc=  1.859892   el=  0.003065   Ekb= -0.399525   kbcos= -0.001223

KBgen: Total number of  Kleinman-Bylander projectors:   16
atom: -------------------------------------------------------------------------

atom: SANKEY-TYPE ORBITALS:
atom: Selected multiple-zeta basis: split     

SPLIT: Orbitals with angular momentum L= 0

SPLIT: Basis orbitals for state 2s

SPLIT: PAO cut-off radius determined from an
SPLIT: energy shift=  0.007350 Ry

   izeta = 1
                 lambda =    1.000000
                     rc =    4.632753
                 energy =   -1.002270
                kinetic =    0.855760
    potential(screened) =   -1.858031
       potential(ionic) =   -5.417575

   izeta = 2
                 rmatch =    3.431921
              splitnorm =    0.150000
                 energy =   -0.867111
                kinetic =    1.300804
    potential(screened) =   -2.167915
       potential(ionic) =   -5.962684

SPLIT: Orbitals with angular momentum L= 1

SPLIT: Basis orbitals for state 2p

SPLIT: PAO cut-off radius determined from an
SPLIT: energy shift=  0.007350 Ry

   izeta = 1
                 lambda =    1.000000
                     rc =    5.658549
                 energy =   -0.381140
                kinetic =    2.399701
    potential(screened) =   -2.780841
       potential(ionic) =   -6.206085

   izeta = 2
                 rmatch =    3.653288
              splitnorm =    0.150000
                 energy =   -0.249149
                kinetic =    3.542762
    potential(screened) =   -3.791911
       potential(ionic) =   -7.581078

POLgen: Perturbative polarization orbital with L=  2

POLgen: Polarization orbital for state 2p

   izeta = 1
                     rc =    5.658549
                 energy =    1.109913
                kinetic =    2.304789
    potential(screened) =   -1.194876
       potential(ionic) =   -4.013592
atom: Total number of Sankey-type orbitals: 13

atm_pop: Valence configuration (for local Pseudopot. screening):
 2s( 2.00)                                                            
 2p( 2.00)                                                            
Vna: chval, zval:    4.00000   4.00000

Vna:  Cut-off radius for the neutral-atom potential:   5.658549
comcore: Pseudo-core radius Rcore=  1.791422

atom: _________________________________________________________________________

prinput: Basis input ----------------------------------------------------------

PAO.BasisType split     

%block ChemicalSpeciesLabel
    1    5 B                       # Species index, atomic number, species label
    2    6 C                       # Species index, atomic number, species label
%endblock ChemicalSpeciesLabel

%block PAO.Basis                 # Define Basis set
B                     2                    # Species label, number of l-shells
 n=2   0   2                         # n, l, Nzeta 
   5.422      4.223   
   1.000      1.000   
 n=2   1   2 P   1                   # n, l, Nzeta, Polarization, NzetaPol
   6.790      4.609   
   1.000      1.000   
C                     2                    # Species label, number of l-shells
 n=2   0   2                         # n, l, Nzeta 
   4.633      3.432   
   1.000      1.000   
 n=2   1   2 P   1                   # n, l, Nzeta, Polarization, NzetaPol
   5.659      3.653   
   1.000      1.000   
%endblock PAO.Basis

prinput: ----------------------------------------------------------------------

coor:   Atomic-coordinates input format  =     Fractional

siesta: Atomic coordinates (Bohr) and species
siesta:     -2.35420  38.89134   0.00000  1        1
siesta:     -2.35420  41.57980   0.00000  1        2
siesta:      2.30256  38.89134   0.00000  1        3
siesta:      2.30256  41.57980   0.00000  1        4
siesta:     -4.68258  34.85847   0.00000  1        5
siesta:     -4.68258  37.54693   0.00000  1        6
siesta:     -2.35420  25.44831   0.00000  1        7
siesta:     -7.01096  22.75985   0.00000  1        8
siesta:     -7.01096  25.44831   0.00000  1        9
siesta:    -11.66772  25.44831   0.00000  1       10
siesta:     -9.33934  26.79272   0.00000  1       11
siesta:     -9.33934  29.48119   0.00000  1       12
siesta:     -0.02582  26.79272   0.00000  1       13
siesta:     -0.02582  29.48119   0.00000  1       14
siesta:     -4.68258  26.79272   0.00000  1       15
siesta:     -4.68258  29.48119   0.00000  1       16
siesta:     -2.35420  30.82560   0.00000  1       17
siesta:     -2.35420  33.51406   0.00000  1       18
siesta:     -7.01096  30.82560   0.00000  1       19
siesta:     -7.01096  33.51406   0.00000  1       20
siesta:     -0.02582  34.85847   0.00000  1       21
siesta:     -0.02582  37.54693   0.00000  1       22
siesta:     -0.02582  42.92421   0.00000  1       23
siesta:     -0.02582   2.59549   0.00000  2       24
siesta:     -0.02582   5.28395   0.00000  2       25
siesta:      4.63094  34.85847   0.00000  2       26
siesta:      4.63094  37.54693   0.00000  2       27
siesta:      6.95932  30.82560   0.00000  2       28
siesta:      6.95932  33.51406   0.00000  2       29
siesta:      9.28770  26.79272   0.00000  2       30
siesta:      9.28770  29.48119   0.00000  2       31
siesta:      2.30256   6.62836   0.00000  2       32
siesta:      2.30256   9.31683   0.00000  2       33
siesta:      4.63094  10.66124   0.00000  2       34
siesta:      4.63094  13.34970   0.00000  2       35
siesta:      6.95932  14.69411   0.00000  2       36
siesta:      6.95932  17.38257   0.00000  2       37
siesta:      9.28770  18.72698   0.00000  2       38
siesta:      9.28770  21.41544   0.00000  2       39
siesta:     11.61608  22.75985   0.00000  2       40
siesta:     11.61608  25.44831   0.00000  2       41
siesta:     -2.35420   6.62836   0.00000  2       42
siesta:     -2.35420   9.31683   0.00000  2       43
siesta:     -0.02582  10.66124   0.00000  2       44
siesta:     -0.02582  13.34970   0.00000  2       45
siesta:      2.30256  14.69411   0.00000  2       46
siesta:      2.30256  17.38257   0.00000  2       47
siesta:      4.63094  18.72698   0.00000  2       48
siesta:      4.63094  21.41544   0.00000  2       49
siesta:      6.95932  22.75985   0.00000  2       50
siesta:      6.95932  25.44831   0.00000  2       51
siesta:     -4.68258  10.66124   0.00000  2       52
siesta:     -4.68258  13.34970   0.00000  2       53
siesta:     -2.35420  14.69411   0.00000  2       54
siesta:     -2.35420  17.38257   0.00000  2       55
siesta:     -0.02582  18.72698   0.00000  2       56
siesta:     -0.02582  21.41544   0.00000  2       57
siesta:      2.30256  22.75985   0.00000  2       58
siesta:      2.30256  25.44831   0.00000  2       59
siesta:     -7.01096  14.69411   0.00000  2       60
siesta:     -7.01096  17.38257   0.00000  2       61
siesta:     -4.68258  18.72698   0.00000  2       62
siesta:     -4.68258  21.41544   0.00000  2       63
siesta:     -2.35420  22.75985   0.00000  2       64
siesta:     -9.33934  18.72698   0.00000  2       65
siesta:     -9.33934  21.41544   0.00000  2       66
siesta:    -11.66772  22.75985   0.00000  2       67
siesta:      4.63094  26.79272   0.00000  2       68
siesta:      4.63094  29.48119   0.00000  2       69
siesta:      2.30256  30.82560   0.00000  2       70
siesta:      2.30256  33.51406   0.00000  2       71
siesta:     -0.02582  45.61267   0.00000  2       72

siesta: System type = slab      

initatomlists: Number of atoms, orbitals, and projectors:     72   936  1152

siesta: ******************** Simulation parameters ****************************
siesta:
siesta: The following are some of the parameters of the simulation.
siesta: A complete list of the parameters used, including default values,
siesta: can be found in file out.fdf
siesta:
redata: Non-Collinear-spin run           =     F
redata: SpinPolarized (Up/Down) run      =     F
redata: Number of spin components        =     1
redata: Long output                      =     F
redata: Number of Atomic Species         =        2
redata: Charge density info will appear in .RHO file
redata: Write Mulliken Pop.              =     NO
redata: Mesh Cutoff                      =   200.0000  Ry
redata: Net charge of the system         =     0.0000 |e|
redata: Max. number of SCF Iter          =      500
redata: SCF convergence failure will abort job
redata: Performing Pulay mixing using    =    10 iterations
redata: Mix DM in first SCF step ?       =     F
redata: Write Pulay info on disk?        =     F
redata: Discard 1st Pulay DM after  kick =     F
redata: New DM Mixing Weight             =     0.0500
redata: New DM Occupancy tolerance       = 0.000000000001
redata: No kicks to SCF
redata: DM Mixing Weight for Kicks       =     0.5000
redata: DM Tolerance for SCF             =     0.000100
redata: Require Energy convergence for SCF =     F
redata: DM Energy tolerance for SCF      =     0.000100 eV
redata: Require Harris convergence for SCF =     F
redata: DM Harris energy tolerance for SCF =     0.000100 eV
redata: Using Saved Data (generic)   =     F
redata: Use continuation files for DM    =     T
redata: Neglect nonoverlap interactions  =     F
redata: Method of Calculation            =     Diagonalization
redata: Divide and Conquer               =     T
redata: Electronic Temperature           =     0.0019  Ry
redata: Fix the spin of the system       =     F
redata: Dynamics option                  =     Verlet MD run
redata: Initial MD time step             =        1
redata:   Final MD time step             =        1
redata: Length of MD time step           =     1.0000  fs
redata: Initial Temperature of MD run    =     0.0000  K
redata: Perform a MD quench              =     F
redata: ***********************************************************************
Total number of electrons:   265.000000
Total ionic charge:   265.000000

* ProcessorY, Blocksize:    2  24

k-point displ. along   1 input, could be:     0.50    0.00
k-point displ. along   2 input, could be:     0.50    0.00
 Kpoints in:          231 . Kpoints trimmed:          231

siesta: k-grid: Number of k-points =   231
siesta: k-grid: Cutoff (effective) =     5.000 Ang
siesta: k-grid: Supercell and displacements
siesta: k-grid:   21   0   0      0.500
siesta: k-grid:    0  21   0      0.500
siesta: k-grid:    0   0   1      0.000
Naive supercell factors:     2    2    2

superc: Internal auxiliary supercell:     2 x     2 x     2  =       8
superc: Number of atoms, orbitals, and projectors:    576   7488   9216

* Maximum dynamic memory allocated =     4 MB

siesta:                 ==============================
                            Begin MD step =      1
                        ==============================

superc: Internal auxiliary supercell:     2 x     2 x     2  =       8
superc: Number of atoms, orbitals, and projectors:    576   7488   9216

outcell: Unit cell vectors (Ang):
       12.804619    7.392750    0.000000
        0.000000   14.785500    0.000000
        0.000000    0.000000   10.000000

outcell: Cell vector modules (Ang)   :   14.785500   14.785500   10.000000
outcell: Cell angles (23,13,12) (deg):     90.0000     90.0000     60.0000
outcell: Cell volume (Ang**3)        :   1893.2269
New_DM. Step:     1
Initializing Density Matrix...

InitMesh: MESH =   120 x   120 x    90 =     1296000
InitMesh: Mesh cutoff (required, used) =   200.000   223.865 Ry

* Maximum dynamic memory allocated =   238 MB

stepf: Fermi-Dirac step function

siesta: Program's energy decomposition (eV):
siesta: Ebs     =     -5453.129159
siesta: Eions   =     15457.706713
siesta: Ena     =      4170.193711
siesta: Ekin    =      5165.204314
siesta: Enl     =       844.532563
siesta: DEna    =        -0.000007
siesta: DUscf   =         0.000000
siesta: DUext   =         0.000000
siesta: Exc     =     -4194.556753
siesta: eta*DQ  =         0.000000
siesta: Emadel  =         0.000000
siesta: Emeta   =         0.000000
siesta: Emolmec =         0.000000
siesta: Ekinion =         0.000000
siesta: Eharris =     -9307.005318
siesta: Etot    =     -9472.332885
siesta: FreeEng =     -9472.332885

siesta: iscf   Eharris(eV)      E_KS(eV)   FreeEng(eV)   dDmax  Ef(eV)
siesta:    1    -9307.0053    -9472.3329    -9472.3329  7.6109 -8.4117
timer: Routine,Calls,Time,% = IterSCF        1    4518.146  99.72
elaps: Routine,Calls,Wall,% = IterSCF        1     565.558  99.72
siesta:    2   -15931.6200    -8276.9900    -8277.0564 17.9832 -7.6557
siesta:    3    -9413.1405    -9280.8862    -9280.9132  1.9288 -5.2056
siesta:    4    -9322.1725    -9218.2124    -9218.2567  1.5296 -4.8517
siesta:    5    -9196.2837    -9142.0193    -9142.0587  1.4697 -4.7918
siesta:    6    -9160.4717    -9116.6550    -9116.6650  1.3352 -4.8467
siesta:    7    -9147.9427    -9104.7269    -9104.7603  1.1711 -5.0152
siesta:    8    -9145.9716    -9099.5888    -9099.6227  1.1421 -4.9074
siesta:    9    -9141.9763    -9093.6010    -9093.6464  0.7368 -5.2749
siesta:   10    -9139.8569    -9092.3046    -9092.3319  0.6074 -5.2217
siesta:   11    -9139.6164    -9093.4911    -9093.5336  0.5520 -5.2087
siesta:   12    -9138.3154    -9097.5836    -9097.6288  0.6302 -5.0979
siesta:   13    -9140.9704    -9100.2434    -9100.2911  0.7260 -5.0688
siesta:   14    -9138.0770    -9105.9632    -9106.0084  0.3789 -5.0861
siesta:   15    -9137.9515    -9109.6874    -9109.7325  0.3191 -5.0180
siesta:   16    -9137.7350    -9110.3387    -9110.3915  0.3260 -5.0521
siesta:   17    -9137.3499    -9112.5374    -9112.5920  0.2906 -5.0147
siesta:   18    -9137.0722    -9120.4282    -9120.4859  0.5773 -5.0483
siesta:   19    -9136.5524    -9120.4617    -9120.5323  0.3320 -5.0823
siesta:   20    -9136.5106    -9121.5313    -9121.6019  0.2672 -5.0972
siesta:   21    -9136.5092    -9125.8388    -9125.9133  0.3754 -5.1333
siesta:   22    -9136.4269    -9132.3837    -9132.4518  0.0965 -5.1952
siesta:   23    -9136.4111    -9134.5175    -9134.6028  0.2329 -5.1777
siesta:   24    -9136.3528    -9137.2227    -9137.3040  0.0973 -5.1839
siesta:   25    -9136.3557    -9139.3491    -9139.4238  0.1832 -5.1837
siesta:   26    -9136.3347    -9139.2203    -9139.3025  0.0805 -5.1892
siesta:   27    -9136.3349    -9139.2976    -9139.3788  0.0916 -5.1893
siesta:   28    -9136.3429    -9138.7584    -9138.8404  0.1058 -5.1788
siesta:   29    -9136.3288    -9139.0138    -9139.0909  0.0781 -5.1805
siesta:   30    -9136.3194    -9138.2881    -9138.3735  0.0443 -5.1707
siesta:   31    -9136.3149    -9137.6178    -9137.7034  0.0174 -5.1570
siesta:   32    -9136.3174    -9137.1467    -9137.2315  0.0164 -5.1510
siesta:   33    -9136.3151    -9137.0094    -9137.0923  0.0102 -5.1497
siesta:   34    -9136.3118    -9136.9126    -9136.9953  0.0118 -5.1505
siesta:   35    -9136.3121    -9136.6634    -9136.7471  0.0067 -5.1542
siesta:   36    -9136.3123    -9136.5099    -9136.5932  0.0062 -5.1559
siesta:   37    -9136.3120    -9136.4230    -9136.5059  0.0027 -5.1569
siesta:   38    -9136.3118    -9136.2806    -9136.3637  0.0028 -5.1566
siesta:   39    -9136.3120    -9136.2160    -9136.2994  0.0020 -5.1569
siesta:   40    -9136.3118    -9136.2157    -9136.2988  0.0019 -5.1570
siesta:   41    -9136.3119    -9136.2039    -9136.2872  0.0013 -5.1569
siesta:   42    -9136.3119    -9136.2117    -9136.2950  0.0012 -5.1575
siesta:   43    -9136.3118    -9136.2255    -9136.3087  0.0009 -5.1575
siesta:   44    -9136.3118    -9136.2426    -9136.3259  0.0008 -5.1575
siesta:   45    -9136.3118    -9136.2594    -9136.3426  0.0003 -5.1576
siesta:   46    -9136.3119    -9136.2719    -9136.3551  0.0002 -5.1576
siesta:   47    -9136.3119    -9136.2885    -9136.3717  0.0003 -5.1576
siesta:   48    -9136.3119    -9136.2945    -9136.3777  0.0002 -5.1576
siesta:   49    -9136.3119    -9136.2994    -9136.3826  0.0002 -5.1576
siesta:   50    -9136.3118    -9136.3019    -9136.3851  0.0001 -5.1576

siesta: E_KS(eV) =            -9136.3034

siesta: E_KS - E_eggbox =     -9136.3034

siesta: Atomic forces (eV/Ang):
----------------------------------------
   Tot   -0.138265   -0.059445    0.000000
----------------------------------------
   Max  571.403743
   Res  134.565473    sqrt( Sum f_i^2 / 3N )
----------------------------------------
   Max  571.403743    constrained

Stress-tensor-Voigt (kbar):     -690.71    -2481.22       -0.66       -8.79        0.00        0.00
(Free)E + p*V (eV/cell)    -7886.7616
Target enthalpy (eV/cell)    -9136.3867

siesta: Stress tensor (static) (eV/Ang**3):
        -0.431104   -0.005488    0.000000
        -0.005488   -1.548638    0.000000
         0.000000    0.000000   -0.000409

siesta: Pressure (static):       1057.52869342  kBar

siesta: Stress tensor (total) (eV/Ang**3):
        -0.431104   -0.005488    0.000000
        -0.005488   -1.548638    0.000000
         0.000000    0.000000   -0.000409

siesta: Pressure (total):       1057.52869342  kBar

siesta: Temp_ion =       0.000 K

* Maximum dynamic memory allocated =   256 MB
Computing bands...

siesta: Program's energy decomposition (eV):
siesta: Ebs     =     -4067.664946
siesta: Eions   =     15457.706713
siesta: Ena     =      4170.193711
siesta: Ekin    =      7933.972830
siesta: Enl     =      -785.807842
siesta: DEna    =      -739.574328
siesta: DUscf   =        98.682311
siesta: DUext   =         0.000000
siesta: Exc     =     -4356.063409
siesta: eta*DQ  =         0.000000
siesta: Emadel  =         0.000000
siesta: Emeta   =         0.000000
siesta: Emolmec =         0.000000
siesta: Ekinion =         0.000000
siesta: Eharris =     -9136.311849
siesta: Etot    =     -9136.303441
siesta: FreeEng =     -9136.386651

siesta: Final energy (eV):
siesta:  Band Struct. =   -4067.664946
siesta:       Kinetic =    7933.972830
siesta:       Hartree =   25515.912801
siesta:    Ext. field =       0.000000
siesta:   Exch.-corr. =   -4356.063409
siesta:  Ion-electron =  -58678.062537
siesta:       Ion-ion =   20447.936874
siesta:       Ekinion =       0.000000
siesta:         Total =   -9136.303441

siesta: Atomic forces (eV/Ang):
siesta:      1    0.661754  107.088132    0.000000
siesta:      2    2.306945 -396.410109    0.000000
siesta:      3   -4.215712  106.272080    0.000000
siesta:      4   -3.547625 -397.874953    0.000000
siesta:      5  -15.066760    0.501535    0.000000
siesta:      6  -16.342518 -394.919585    0.000000
siesta:      7   -0.428437   -4.945857    0.000000
siesta:      8    2.538821   -5.091100    0.000000
siesta:      9   -1.290111    0.993038    0.000000
siesta:     10   -6.136734   -1.770721    0.000000
siesta:     11   -3.092691    0.486469    0.000000
siesta:     12   -5.510645    1.895330    0.000000
siesta:     13    3.836004   -0.790559    0.000000
siesta:     14    0.533490 -410.389080    0.000000
siesta:     15    2.105771    0.721502    0.000000
siesta:     16   -0.126055    1.766283    0.000000
siesta:     17  -14.479175    0.436677    0.000000
siesta:     18  -17.477693 -400.016142    0.000000
siesta:     19   -2.438314    3.264833    0.000000
siesta:     20   -3.659330    2.560922    0.000000
siesta:     21   -2.832372  108.495949    0.000000
siesta:     22   -4.067922 -387.795549    0.000000
siesta:     23    0.110883  104.400378    0.000000
siesta:     24    2.275219  408.464053    0.000000
siesta:     25   -9.110628 -124.451646    0.000000
siesta:     26   26.088760    6.107690    0.000000
siesta:     27   28.130098 -543.763836    0.000000
siesta:     28    2.342091   -0.003394    0.000000
siesta:     29   -2.450746    1.980613    0.000000
siesta:     30    2.533169    1.859979    0.000000
siesta:     31   -1.286761    0.599133    0.000000
siesta:     32   26.571825  556.669104    0.000000
siesta:     33   -3.274950 -128.963976    0.000000
siesta:     34   34.875860  549.429236    0.000000
siesta:     35   24.344369   -1.657848    0.000000
siesta:     36   -1.731225   -2.831223    0.000000
siesta:     37    1.880468    0.078478    0.000000
siesta:     38   -0.867017   -0.528632    0.000000
siesta:     39    1.753757   -1.900920    0.000000
siesta:     40    0.404590    6.311307    0.000000
siesta:     41   -0.585919   -6.381820    0.000000
siesta:     42  -15.985356  404.103493    0.000000
siesta:     43   -1.457809 -118.842913    0.000000
siesta:     44   -3.882611  405.632889    0.000000
siesta:     45    0.067864 -125.853246    0.000000
siesta:     46   31.471375  412.489314    0.000000
siesta:     47   19.546637   -3.281345    0.000000
siesta:     48   -1.357594    1.499689    0.000000
siesta:     49    0.015346   -0.018323    0.000000
siesta:     50   -0.149496    0.706236    0.000000
siesta:     51   -0.132098   -0.593559    0.000000
siesta:     52  -31.499081  402.826723    0.000000
siesta:     53  -24.125046    3.033513    0.000000
siesta:     54  -32.246194  410.259046    0.000000
siesta:     55  -19.522533   -4.160560    0.000000
siesta:     56   -0.005442  571.403743    0.000000
siesta:     57   -1.299312    0.930118    0.000000
siesta:     58    0.874032    0.174379    0.000000
siesta:     59    1.983761   -1.992387    0.000000
siesta:     60    2.471107   -2.482618    0.000000
siesta:     61   -2.348393   -0.919160    0.000000
siesta:     62    1.528351    2.348562    0.000000
siesta:     63    1.438038   -2.507472    0.000000
siesta:     64    1.869570   -4.024114    0.000000
siesta:     65    1.207565   -0.022869    0.000000
siesta:     66   -7.170406   -2.737943    0.000000
siesta:     67    0.792743   -1.082067    0.000000
siesta:     68    0.501136   -0.283637    0.000000
siesta:     69   -1.026646   -1.761774    0.000000
siesta:     70   21.520278    2.649624    0.000000
siesta:     71   13.059372 -555.597769    0.000000
siesta:     72    0.448045 -551.850785    0.000000
siesta: ----------------------------------------
siesta:    Tot   -0.138265   -0.059445    0.000000

siesta: Stress tensor (static) (eV/Ang**3):
siesta:    -0.431104   -0.005488    0.000000
siesta:    -0.005488   -1.548638    0.000000
siesta:     0.000000    0.000000   -0.000409

siesta: Cell volume =       1893.226884 Ang**3

siesta: Pressure (static):
siesta:                Solid            Molecule  Units
siesta:           0.00718879          0.10248592  Ry/Bohr**3
siesta:           0.66005036          9.40990844  eV/Ang**3
siesta:        1057.52869342      15076.49838429  kBar
(Free)E+ p_basis*V_orbitals  =       -9098.382106
(Free)Eharris+ p_basis*V_orbitals  =       -9098.392043

siesta: Electric dipole (a.u.)  =    0.000000    0.000000    0.000000
siesta: Electric dipole (Debye) =    0.000000    0.000000    0.000000

* Maximum dynamic memory allocated : Node    0 =   256 MB
* Maximum dynamic memory allocated : Node    1 =    90 MB
* Maximum dynamic memory allocated : Node    2 =    93 MB
* Maximum dynamic memory allocated : Node    3 =   241 MB
* Maximum dynamic memory allocated : Node    4 =   221 MB
* Maximum dynamic memory allocated : Node    5 =    81 MB
* Maximum dynamic memory allocated : Node    6 =    85 MB
* Maximum dynamic memory allocated : Node    7 =   205 MB

* Maximum memory occured during matrixMtoO                    

timer: CPU execution times:
timer:  Routine       Calls   Time/call    Tot.time        %
timer:  siesta            1  222804.575  222804.575   100.00
timer:  Setup             1       3.878       3.878     0.00
timer:  bands             3     269.046     807.138     0.36
timer:  writewave         1       0.043       0.043     0.00
timer:  KSV_init          1       0.006       0.006     0.00
timer:  IterMD            1  221987.826  221987.826    99.63
timer:  hsparse           1       0.399       0.399     0.00
timer:  overlap           1       7.790       7.790     0.00
timer:  IterSCF          50    4434.713  221735.673    99.52
timer:  kinefsm           2       4.044       8.088     0.00
timer:  nlefsm            2      21.989      43.977     0.02
timer:  DHSCF            51     136.801    6976.845     3.13
timer:  DHSCF1            1       1.000       1.000     0.00
timer:  DHSCF2            1      47.158      47.158     0.02
timer:  REORD           410       0.010       4.156     0.00
timer:  POISON           52       2.238     116.384     0.05
timer:  DHSCF3           51     134.925    6881.162     3.09
timer:  rhoofd           51      27.006    1377.309     0.62
timer:  cellXC           51       3.474     177.173     0.08
timer:  vmat             51      67.113    3422.749     1.54
timer:  MolMec            2       0.000       0.000     0.00
timer:  diagon           50    4296.216  214810.778    96.41
timer:  c-eigval      11671       6.670   77850.268    34.94
timer:  c-buildHS     11671       0.124    1446.466     0.65
timer:  cdiag         23221       6.880  159749.066    71.70
timer:  cdiag1        23221       0.427    9922.456     4.45
timer:  cdiag2        23221       1.906   44267.206    19.87
timer:  cdiag3        23221       3.933   91331.150    40.99
timer:  cdiag4        23221       0.223    5188.114     2.33
timer:  c-eigvec      11550       7.285   84144.614    37.77
timer:  c-buildD      11550       4.637   53560.452    24.04
timer:  DHSCF4            1      44.799      44.799     0.02
timer:  dfscf             1      42.100      42.100     0.02
timer:  overfsm           1       0.486       0.486     0.00
timer:  optical           1       5.035       5.035     0.00
  

elaps: ELAPSED times:
elaps:  Routine       Calls   Time/call    Tot.time        %
elaps:  siesta            1   27884.221   27884.221   100.00
elaps:  Setup             1       0.501       0.501     0.00
elaps:  bands             3      33.683     101.049     0.36
elaps:  writewave         1       0.006       0.006     0.00
elaps:  KSV_init          1       0.001       0.001     0.00
elaps:  IterMD            1   27782.007   27782.007    99.63
elaps:  hsparse           1       0.051       0.051     0.00
elaps:  overlap           1       0.979       0.979     0.00
elaps:  IterSCF          50     555.012   27750.599    99.52
elaps:  kinefsm           2       0.509       1.018     0.00
elaps:  nlefsm            2       2.767       5.533     0.02
elaps:  DHSCF            51      17.235     879.002     3.15
elaps:  DHSCF1            1       0.127       0.127     0.00
elaps:  DHSCF2            1       5.901       5.901     0.02
elaps:  REORD           410       0.001       0.544     0.00
elaps:  POISON           52       0.280      14.571     0.05
elaps:  DHSCF3           51      16.879     860.830     3.09
elaps:  rhoofd           51       7.716     393.511     1.41
elaps:  cellXC           51       0.434      22.114     0.08
elaps:  vmat             51       8.395     428.162     1.54
elaps:  MolMec            2       0.000       0.000     0.00
elaps:  diagon           50     537.699   26884.958    96.42
elaps:  c-eigval      11671       0.835    9740.565    34.93
elaps:  c-buildHS     11671       0.017     197.600     0.71
elaps:  cdiag         23221       0.846   19644.435    70.45
elaps:  cdiag1        23221       0.053    1231.594     4.42
elaps:  cdiag2        23221       0.239    5539.260    19.87
elaps:  cdiag3        23221       0.493   11442.845    41.04
elaps:  cdiag4        23221       0.028     660.045     2.37
elaps:  c-eigvec      11550       0.886   10234.107    36.70
elaps:  c-buildD      11550       0.606    7002.004    25.11
elaps:  DHSCF4            1      11.771      11.771     0.04
elaps:  dfscf             1      11.224      11.224     0.04
elaps:  overfsm           1       0.063       0.063     0.00
elaps:  optical           1       0.001       0.001     0.00
  
>> End of run:  24-APR-2016  15:18:19
