Siesta Version:                                        siesta-3.2-pl-3
Architecture  : x86_64-unknown-linux-gnu--unknown
Compiler flags: mpiifort -g -O2 -fPIC -xSSE4.1 -fp-model source -shared-intel 
PARALLEL version

* Running on   12 nodes in parallel
>> Start of run:  14-APR-2016  14:41:19

                           ***********************       
                           *  WELCOME TO SIESTA  *       
                           ***********************       

reinit: Reading from standard input
************************** Dump of input data file ****************************
#(1) General system descriptors
SystemName            GRP_doping    # Descriptive name of the system
SystemLabel           GRP_doping    # Short name for naming files
%include STRUCT.fdf
%include KPT.fdf
%include BASIS.fdf
#%include TS.fdf # for transiesta calculation
#(4) DFT, Grid, SCF
XC.functional         GGA           # LDA or GGA (default = LDA)
XC.authors            PBE           # CA (Ceperley-Aldr) = PZ
                                    #    (Perdew-Zunger) - LDA - Default
                                    # PW92 (Perdew-Wang-92) - LDA
                                    # PBE (Perdew-Burke-Ernzerhof) - GGA
MeshCutoff            200.000000    Ry      # Default: 50.0 Ry ~ 0.444 Bohr
                                    #         100.0 Ry ~ 0.314 Bohr
MaxSCFIterations      500           # Default: 50
DM.MixingWeight       0.05          # Default: 0.25
DM.NumberPulay        10            # Default: 0
DM.PulayOnFile        F             # SystemLabel.P1, SystemLabel.P2
DM.Tolerance          1.d-4         # Default: 1.d-4
DM.UseSaveDM          .true.        # because of the bug
SCFMustConverge       .true.
NeglNonOverlapInt     F             # Default: F
#(5) Eigenvalue problem: order-N or diagonalization
SolutionMethod        Diagon        # or Transiesta
ElectronicTemperature 300.0 K       # Default: 300.0 K
#(6) Molecular dynamics and relaxations
#MD.TypeOfRun          CG            # Type of dynamics:
#MD.VariableCell       F
#MD.NumCGsteps         0           # 0 for single-point / 100 for gopt
#MD.MaxCGDispl         0.2 Bohr      # Default: 0.2 Bohr
#MD.MaxForceTol        0.02 eV/Ang   # Default: 0.04 eV/Ang
#MD.MaxStressTol       1.0 GPa       # Default: 1.0 GPa
# Geometry Constraints
#%block GeometryConstraints
#	position from 1 to 44
#%endblock GeometryConstraints
BandLinesScale   pi/a
%block BandLines
 1   0.00000000  0.00000000  0.00000000
50   0.00000000  0.07809418  0.00000000
50   0.04509075  0.07809242  0.00000000
20   0.00000000  0.00000000  0.00000000
%endblock BandLines
************************** End of input data file *****************************

reinit: -----------------------------------------------------------------------
reinit: System Name: GRP_doping
reinit: -----------------------------------------------------------------------
reinit: System Label: GRP_doping                                                  
reinit: -----------------------------------------------------------------------

initatom: Reading input for the pseudopotentials and atomic orbitals ----------
 Species number:            1  Label: B Atomic number:           5
 Species number:            2  Label: C Atomic number:           6
Ground state valence configuration:   2s02  2p01
Reading pseudopotential information in formatted form from B.psf

Valence configuration for pseudopotential generation:
2s( 2.00) rc: 1.74
2p( 1.00) rc: 1.74
3d( 0.00) rc: 1.74
4f( 0.00) rc: 1.74
Ground state valence configuration:   2s02  2p02
Reading pseudopotential information in formatted form from C.psf

Valence configuration for pseudopotential generation:
2s( 2.00) rc: 1.54
2p( 2.00) rc: 1.54
3d( 0.00) rc: 1.54
4f( 0.00) rc: 1.54
For B, standard SIESTA heuristics set lmxkb to 3
 (one more than the basis l, including polarization orbitals).
Use PS.lmax or PS.KBprojectors blocks to override.
For C, standard SIESTA heuristics set lmxkb to 3
 (one more than the basis l, including polarization orbitals).
Use PS.lmax or PS.KBprojectors blocks to override.

<basis_specs>
===============================================================================
B                    Z=   5    Mass=  10.810        Charge= 0.17977+309
Lmxo=1 Lmxkb= 3    BasisType=split      Semic=F
L=0  Nsemic=0  Cnfigmx=2
          n=1  nzeta=2  polorb=0
            splnorm:   0.15000    
               vcte:    0.0000    
               rinn:    0.0000    
                rcs:    0.0000      0.0000    
            lambdas:    1.0000      1.0000    
L=1  Nsemic=0  Cnfigmx=2
          n=1  nzeta=2  polorb=1
            splnorm:   0.15000    
               vcte:    0.0000    
               rinn:    0.0000    
                rcs:    0.0000      0.0000    
            lambdas:    1.0000      1.0000    
-------------------------------------------------------------------------------
L=0  Nkbl=1  erefs: 0.17977+309
L=1  Nkbl=1  erefs: 0.17977+309
L=2  Nkbl=1  erefs: 0.17977+309
L=3  Nkbl=1  erefs: 0.17977+309
===============================================================================
</basis_specs>

atom: Called for B                     (Z =   5)

read_vps: Pseudopotential generation method:
read_vps: ATM3      Troullier-Martins                       
Total valence charge:    3.00000

read_vps: Pseudopotential includes a core correction:
read_vps: Pseudo-core for xc-correction

xc_check: Exchange-correlation functional:
xc_check: GGA Perdew, Burke & Ernzerhof 1996
V l=0 = -2*Zval/r beyond r=  1.7165
V l=1 = -2*Zval/r beyond r=  1.7165
V l=2 = -2*Zval/r beyond r=  1.7165
V l=3 = -2*Zval/r beyond r=  1.6951
All V_l potentials equal beyond r=  1.7165
This should be close to max(r_c) in ps generation
All pots = -2*Zval/r beyond r=  1.7165

VLOCAL1: 99.0% of the norm of Vloc inside     14.733 Ry
VLOCAL1: 99.9% of the norm of Vloc inside     33.577 Ry
atom: Maximum radius for 4*pi*r*r*local-pseudopot. charge    2.04484
atom: Maximum radius for r*vlocal+2*Zval:    1.75994
GHOST: No ghost state for L =  0
GHOST: No ghost state for L =  1
GHOST: No ghost state for L =  2
GHOST: No ghost state for L =  3

KBgen: Kleinman-Bylander projectors: 
   l= 0   rc=  1.897051   el= -0.693730   Ekb=  4.595746   kbcos=  0.286105
   l= 1   rc=  1.920920   el= -0.265236   Ekb= -2.350715   kbcos= -0.315747
   l= 2   rc=  2.044840   el=  0.002055   Ekb= -0.690767   kbcos= -0.013822
   l= 3   rc=  2.149707   el=  0.003188   Ekb= -0.315358   kbcos= -0.002055

KBgen: Total number of  Kleinman-Bylander projectors:   16
atom: -------------------------------------------------------------------------

atom: SANKEY-TYPE ORBITALS:
atom: Selected multiple-zeta basis: split     

SPLIT: Orbitals with angular momentum L= 0

SPLIT: Basis orbitals for state 2s

SPLIT: PAO cut-off radius determined from an
SPLIT: energy shift=  0.007350 Ry

   izeta = 1
                 lambda =    1.000000
                     rc =    5.422032
                 energy =   -0.686029
                kinetic =    0.576707
    potential(screened) =   -1.262736
       potential(ionic) =   -3.271094

   izeta = 2
                 rmatch =    4.222573
              splitnorm =    0.150000
                 energy =   -0.602132
                kinetic =    0.858975
    potential(screened) =   -1.461107
       potential(ionic) =   -3.582536

SPLIT: Orbitals with angular momentum L= 1

SPLIT: Basis orbitals for state 2p

SPLIT: PAO cut-off radius determined from an
SPLIT: energy shift=  0.007350 Ry

   izeta = 1
                 lambda =    1.000000
                     rc =    6.790259
                 energy =   -0.258578
                kinetic =    1.481412
    potential(screened) =   -1.739989
       potential(ionic) =   -3.657461

   izeta = 2
                 rmatch =    4.608740
              splitnorm =    0.150000
                 energy =   -0.173757
                kinetic =    2.186690
    potential(screened) =   -2.360447
       potential(ionic) =   -4.464260

POLgen: Perturbative polarization orbital with L=  2

POLgen: Polarization orbital for state 2p

   izeta = 1
                     rc =    6.790259
                 energy =    0.684082
                kinetic =    1.471481
    potential(screened) =   -0.787399
       potential(ionic) =   -2.406985
atom: Total number of Sankey-type orbitals: 13

atm_pop: Valence configuration (for local Pseudopot. screening):
 2s( 2.00)                                                            
 2p( 1.00)                                                            
Vna: chval, zval:    3.00000   3.00000

Vna:  Cut-off radius for the neutral-atom potential:   6.790259
comcore: Pseudo-core radius Rcore=  2.122997

atom: _________________________________________________________________________

<basis_specs>
===============================================================================
C                    Z=   6    Mass=  12.010        Charge= 0.17977+309
Lmxo=1 Lmxkb= 3    BasisType=split      Semic=F
L=0  Nsemic=0  Cnfigmx=2
          n=1  nzeta=2  polorb=0
            splnorm:   0.15000    
               vcte:    0.0000    
               rinn:    0.0000    
                rcs:    0.0000      0.0000    
            lambdas:    1.0000      1.0000    
L=1  Nsemic=0  Cnfigmx=2
          n=1  nzeta=2  polorb=1
            splnorm:   0.15000    
               vcte:    0.0000    
               rinn:    0.0000    
                rcs:    0.0000      0.0000    
            lambdas:    1.0000      1.0000    
-------------------------------------------------------------------------------
L=0  Nkbl=1  erefs: 0.17977+309
L=1  Nkbl=1  erefs: 0.17977+309
L=2  Nkbl=1  erefs: 0.17977+309
L=3  Nkbl=1  erefs: 0.17977+309
===============================================================================
</basis_specs>

atom: Called for C                     (Z =   6)

read_vps: Pseudopotential generation method:
read_vps: ATM3      Troullier-Martins                       
Total valence charge:    4.00000

read_vps: Pseudopotential includes a core correction:
read_vps: Pseudo-core for xc-correction

xc_check: Exchange-correlation functional:
xc_check: GGA Perdew, Burke & Ernzerhof 1996
V l=0 = -2*Zval/r beyond r=  1.5227
V l=1 = -2*Zval/r beyond r=  1.5227
V l=2 = -2*Zval/r beyond r=  1.5227
V l=3 = -2*Zval/r beyond r=  1.5038
All V_l potentials equal beyond r=  1.5227
This should be close to max(r_c) in ps generation
All pots = -2*Zval/r beyond r=  1.5227

VLOCAL1: 99.0% of the norm of Vloc inside     18.722 Ry
VLOCAL1: 99.9% of the norm of Vloc inside     42.668 Ry
atom: Maximum radius for 4*pi*r*r*local-pseudopot. charge    1.83678
atom: Maximum radius for r*vlocal+2*Zval:    1.58088
GHOST: No ghost state for L =  0
GHOST: No ghost state for L =  1
GHOST: No ghost state for L =  2
GHOST: No ghost state for L =  3

KBgen: Kleinman-Bylander projectors: 
   l= 0   rc=  1.704034   el= -1.009801   Ekb=  5.335044   kbcos=  0.316824
   l= 1   rc=  1.704034   el= -0.388707   Ekb= -3.785862   kbcos= -0.366464
   l= 2   rc=  1.791422   el=  0.001971   Ekb= -0.970471   kbcos= -0.009212
   l= 3   rc=  1.859892   el=  0.003065   Ekb= -0.399525   kbcos= -0.001223

KBgen: Total number of  Kleinman-Bylander projectors:   16
atom: -------------------------------------------------------------------------

atom: SANKEY-TYPE ORBITALS:
atom: Selected multiple-zeta basis: split     

SPLIT: Orbitals with angular momentum L= 0

SPLIT: Basis orbitals for state 2s

SPLIT: PAO cut-off radius determined from an
SPLIT: energy shift=  0.007350 Ry

   izeta = 1
                 lambda =    1.000000
                     rc =    4.632753
                 energy =   -1.002270
                kinetic =    0.855760
    potential(screened) =   -1.858031
       potential(ionic) =   -5.417575

   izeta = 2
                 rmatch =    3.431921
              splitnorm =    0.150000
                 energy =   -0.867111
                kinetic =    1.300804
    potential(screened) =   -2.167915
       potential(ionic) =   -5.962684

SPLIT: Orbitals with angular momentum L= 1

SPLIT: Basis orbitals for state 2p

SPLIT: PAO cut-off radius determined from an
SPLIT: energy shift=  0.007350 Ry

   izeta = 1
                 lambda =    1.000000
                     rc =    5.658549
                 energy =   -0.381140
                kinetic =    2.399701
    potential(screened) =   -2.780841
       potential(ionic) =   -6.206085

   izeta = 2
                 rmatch =    3.653288
              splitnorm =    0.150000
                 energy =   -0.249149
                kinetic =    3.542762
    potential(screened) =   -3.791911
       potential(ionic) =   -7.581078

POLgen: Perturbative polarization orbital with L=  2

POLgen: Polarization orbital for state 2p

   izeta = 1
                     rc =    5.658549
                 energy =    1.109913
                kinetic =    2.304789
    potential(screened) =   -1.194876
       potential(ionic) =   -4.013592
atom: Total number of Sankey-type orbitals: 13

atm_pop: Valence configuration (for local Pseudopot. screening):
 2s( 2.00)                                                            
 2p( 2.00)                                                            
Vna: chval, zval:    4.00000   4.00000

Vna:  Cut-off radius for the neutral-atom potential:   5.658549
comcore: Pseudo-core radius Rcore=  1.791422

atom: _________________________________________________________________________

prinput: Basis input ----------------------------------------------------------

PAO.BasisType split     

%block ChemicalSpeciesLabel
    1    5 B                       # Species index, atomic number, species label
    2    6 C                       # Species index, atomic number, species label
%endblock ChemicalSpeciesLabel

%block PAO.Basis                 # Define Basis set
B                     2                    # Species label, number of l-shells
 n=2   0   2                         # n, l, Nzeta 
   5.422      4.223   
   1.000      1.000   
 n=2   1   2 P   1                   # n, l, Nzeta, Polarization, NzetaPol
   6.790      4.609   
   1.000      1.000   
C                     2                    # Species label, number of l-shells
 n=2   0   2                         # n, l, Nzeta 
   4.633      3.432   
   1.000      1.000   
 n=2   1   2 P   1                   # n, l, Nzeta, Polarization, NzetaPol
   5.659      3.653   
   1.000      1.000   
%endblock PAO.Basis

prinput: ----------------------------------------------------------------------

coor:   Atomic-coordinates input format  =     Fractional

siesta: Atomic coordinates (Bohr) and species
siesta:     -0.02582   2.59549   0.00000  1        1
siesta:      9.28770  18.72698   0.00000  1        2
siesta:     -4.68258  10.66124   0.00000  1        3
siesta:      2.30256  25.44831   0.00000  1        4
siesta:     -9.33934  18.72698   0.00000  1        5
siesta:      4.63094  26.79272   0.00000  1        6
siesta:     -0.02582  34.85847   0.00000  1        7
siesta:     -0.02582   5.28395   0.00000  2        8
siesta:     -2.35420  38.89134   0.00000  2        9
siesta:     -2.35420  41.57980   0.00000  2       10
siesta:      2.30256  38.89134   0.00000  2       11
siesta:      2.30256  41.57980   0.00000  2       12
siesta:      4.63094  34.85847   0.00000  2       13
siesta:      4.63094  37.54693   0.00000  2       14
siesta:      6.95932  30.82560   0.00000  2       15
siesta:      6.95932  33.51406   0.00000  2       16
siesta:      9.28770  26.79272   0.00000  2       17
siesta:      9.28770  29.48119   0.00000  2       18
siesta:     -4.68258  34.85847   0.00000  2       19
siesta:     -4.68258  37.54693   0.00000  2       20
siesta:      2.30256   6.62836   0.00000  2       21
siesta:      2.30256   9.31683   0.00000  2       22
siesta:      4.63094  10.66124   0.00000  2       23
siesta:      4.63094  13.34970   0.00000  2       24
siesta:      6.95932  14.69411   0.00000  2       25
siesta:      6.95932  17.38257   0.00000  2       26
siesta:      9.28770  21.41544   0.00000  2       27
siesta:     11.61608  22.75985   0.00000  2       28
siesta:     11.61608  25.44831   0.00000  2       29
siesta:     -2.35420   6.62836   0.00000  2       30
siesta:     -2.35420   9.31683   0.00000  2       31
siesta:     -0.02582  10.66124   0.00000  2       32
siesta:     -0.02582  13.34970   0.00000  2       33
siesta:      2.30256  14.69411   0.00000  2       34
siesta:      2.30256  17.38257   0.00000  2       35
siesta:      4.63094  18.72698   0.00000  2       36
siesta:      4.63094  21.41544   0.00000  2       37
siesta:      6.95932  22.75985   0.00000  2       38
siesta:      6.95932  25.44831   0.00000  2       39
siesta:     -4.68258  13.34970   0.00000  2       40
siesta:     -2.35420  14.69411   0.00000  2       41
siesta:     -2.35420  17.38257   0.00000  2       42
siesta:     -0.02582  18.72698   0.00000  2       43
siesta:     -0.02582  21.41544   0.00000  2       44
siesta:      2.30256  22.75985   0.00000  2       45
siesta:     -7.01096  14.69411   0.00000  2       46
siesta:     -7.01096  17.38257   0.00000  2       47
siesta:     -4.68258  18.72698   0.00000  2       48
siesta:     -4.68258  21.41544   0.00000  2       49
siesta:     -2.35420  22.75985   0.00000  2       50
siesta:     -2.35420  25.44831   0.00000  2       51
siesta:     -9.33934  21.41544   0.00000  2       52
siesta:     -7.01096  22.75985   0.00000  2       53
siesta:     -7.01096  25.44831   0.00000  2       54
siesta:    -11.66772  22.75985   0.00000  2       55
siesta:    -11.66772  25.44831   0.00000  2       56
siesta:     -9.33934  26.79272   0.00000  2       57
siesta:     -9.33934  29.48119   0.00000  2       58
siesta:      4.63094  29.48119   0.00000  2       59
siesta:     -0.02582  26.79272   0.00000  2       60
siesta:     -0.02582  29.48119   0.00000  2       61
siesta:     -4.68258  26.79272   0.00000  2       62
siesta:     -4.68258  29.48119   0.00000  2       63
siesta:      2.30256  30.82560   0.00000  2       64
siesta:      2.30256  33.51406   0.00000  2       65
siesta:     -2.35420  30.82560   0.00000  2       66
siesta:     -2.35420  33.51406   0.00000  2       67
siesta:     -7.01096  30.82560   0.00000  2       68
siesta:     -7.01096  33.51406   0.00000  2       69
siesta:     -0.02582  37.54693   0.00000  2       70
siesta:     -0.02582  42.92421   0.00000  2       71
siesta:     -0.02582  45.61267   0.00000  2       72

siesta: System type = slab      

initatomlists: Number of atoms, orbitals, and projectors:     72   936  1152

siesta: ******************** Simulation parameters ****************************
siesta:
siesta: The following are some of the parameters of the simulation.
siesta: A complete list of the parameters used, including default values,
siesta: can be found in file out.fdf
siesta:
redata: Non-Collinear-spin run           =     F
redata: SpinPolarized (Up/Down) run      =     F
redata: Number of spin components        =     1
redata: Long output                      =     F
redata: Number of Atomic Species         =        2
redata: Charge density info will appear in .RHO file
redata: Write Mulliken Pop.              =     NO
redata: Mesh Cutoff                      =   200.0000  Ry
redata: Net charge of the system         =     0.0000 |e|
redata: Max. number of SCF Iter          =      500
redata: SCF convergence failure will abort job
redata: Performing Pulay mixing using    =    10 iterations
redata: Mix DM in first SCF step ?       =     F
redata: Write Pulay info on disk?        =     F
redata: Discard 1st Pulay DM after  kick =     F
redata: New DM Mixing Weight             =     0.0500
redata: New DM Occupancy tolerance       = 0.000000000001
redata: No kicks to SCF
redata: DM Mixing Weight for Kicks       =     0.5000
redata: DM Tolerance for SCF             =     0.000100
redata: Require Energy convergence for SCF =     F
redata: DM Energy tolerance for SCF      =     0.000100 eV
redata: Require Harris convergence for SCF =     F
redata: DM Harris energy tolerance for SCF =     0.000100 eV
redata: Using Saved Data (generic)   =     F
redata: Use continuation files for DM    =     T
redata: Neglect nonoverlap interactions  =     F
redata: Method of Calculation            =     Diagonalization
redata: Divide and Conquer               =     T
redata: Electronic Temperature           =     0.0019  Ry
redata: Fix the spin of the system       =     F
redata: Dynamics option                  =     Verlet MD run
redata: Initial MD time step             =        1
redata:   Final MD time step             =        1
redata: Length of MD time step           =     1.0000  fs
redata: Initial Temperature of MD run    =     0.0000  K
redata: Perform a MD quench              =     F
redata: ***********************************************************************
Total number of electrons:   281.000000
Total ionic charge:   281.000000

* ProcessorY, Blocksize:    3  24

k-point displ. along   1 input, could be:     0.50    0.00
k-point displ. along   2 input, could be:     0.50    0.00
 Kpoints in:          231 . Kpoints trimmed:          231

siesta: k-grid: Number of k-points =   231
siesta: k-grid: Cutoff (effective) =     5.000 Ang
siesta: k-grid: Supercell and displacements
siesta: k-grid:   21   0   0      0.500
siesta: k-grid:    0  21   0      0.500
siesta: k-grid:    0   0   1      0.000
Naive supercell factors:     2    2    2

superc: Internal auxiliary supercell:     2 x     2 x     2  =       8
superc: Number of atoms, orbitals, and projectors:    576   7488   9216

* Maximum dynamic memory allocated =     4 MB

siesta:                 ==============================
                            Begin MD step =      1
                        ==============================

superc: Internal auxiliary supercell:     2 x     2 x     2  =       8
superc: Number of atoms, orbitals, and projectors:    576   7488   9216

outcell: Unit cell vectors (Ang):
       12.804619    7.392750    0.000000
        0.000000   14.785500    0.000000
        0.000000    0.000000   10.000000

outcell: Cell vector modules (Ang)   :   14.785500   14.785500   10.000000
outcell: Cell angles (23,13,12) (deg):     90.0000     90.0000     60.0000
outcell: Cell volume (Ang**3)        :   1893.2269
New_DM. Step:     1
Initializing Density Matrix...

iodm: Reading Density Matrix from files

InitMesh: MESH =   120 x   120 x    90 =     1296000
InitMesh: Mesh cutoff (required, used) =   200.000   223.865 Ry

* Maximum dynamic memory allocated =   150 MB

stepf: Fermi-Dirac step function

siesta: Program's energy decomposition (eV):
siesta: Ebs     =     -4440.521069
siesta: Eions   =     17506.614093
siesta: Ena     =      4543.761240
siesta: Ekin    =      8920.127802
siesta: Enl     =      -963.304423
siesta: DEna    =      -766.328362
siesta: DUscf   =       102.621158
siesta: DUext   =         0.000000
siesta: Exc     =     -4343.451610
siesta: eta*DQ  =         0.000000
siesta: Emadel  =         0.000000
siesta: Emeta   =         0.000000
siesta: Emolmec =         0.000000
siesta: Ekinion =         0.000000
siesta: Eharris =    -10013.183942
siesta: Etot    =    -10013.188288
siesta: FreeEng =    -10013.188288

siesta: iscf   Eharris(eV)      E_KS(eV)   FreeEng(eV)   dDmax  Ef(eV)
siesta:    1   -10013.1839   -10013.1883   -10013.1883  0.0001 -4.8367
timer: Routine,Calls,Time,% = IterSCF        1    5449.049  99.75
elaps: Routine,Calls,Wall,% = IterSCF        1     474.955  99.75

siesta: E_KS(eV) =           -10013.1839

siesta: E_KS - E_eggbox =    -10013.1839

siesta: Atomic forces (eV/Ang):
----------------------------------------
   Tot   -0.217426   -0.057342    0.000000
----------------------------------------
   Max  562.411510
   Res  152.858176    sqrt( Sum f_i^2 / 3N )
----------------------------------------
   Max  562.411510    constrained

Stress-tensor-Voigt (kbar):     -733.73    -2689.86       -0.33       -1.74        0.00        0.00
(Free)E + p*V (eV/cell)    -8664.6307
Target enthalpy (eV/cell)   -10013.2495

siesta: Stress tensor (static) (eV/Ang**3):
        -0.457950   -0.001086    0.000000
        -0.001086   -1.678862    0.000000
         0.000000    0.000000   -0.000204

siesta: Pressure (static):       1141.30478282  kBar

siesta: Stress tensor (total) (eV/Ang**3):
        -0.457950   -0.001086    0.000000
        -0.001086   -1.678862    0.000000
         0.000000    0.000000   -0.000204

siesta: Pressure (total):       1141.30478282  kBar

siesta: Temp_ion =       0.000 K

* Maximum dynamic memory allocated =   160 MB
Computing bands...

siesta: Program's energy decomposition (eV):
siesta: Ebs     =     -4440.521069
siesta: Eions   =     17506.614093
siesta: Ena     =      4543.761240
siesta: Ekin    =      8920.143873
siesta: Enl     =      -963.313541
siesta: DEna    =      -766.331879
siesta: DUscf   =       102.622272
siesta: DUext   =         0.000000
siesta: Exc     =     -4343.451813
siesta: eta*DQ  =         0.000000
siesta: Emadel  =         0.000000
siesta: Emeta   =         0.000000
siesta: Emolmec =         0.000000
siesta: Ekinion =         0.000000
siesta: Eharris =    -10013.183942
siesta: Etot    =    -10013.183942
siesta: FreeEng =    -10013.249466

siesta: Final energy (eV):
siesta:  Band Struct. =   -4440.521069
siesta:       Kinetic =    8920.143873
siesta:       Hartree =   29252.233463
siesta:    Ext. field =       0.000000
siesta:   Exch.-corr. =   -4343.451813
siesta:  Ion-electron =  -67118.643080
siesta:       Ion-ion =   23276.533616
siesta:       Ekinion =       0.000000
siesta:         Total =  -10013.183942

siesta: Atomic forces (eV/Ang):
siesta:      1    0.357075  407.702142    0.000000
siesta:      2    1.039190   -1.364184    0.000000
siesta:      3  -27.407944  397.331355    0.000000
siesta:      4   -3.949388   -1.117126    0.000000
siesta:      5   -1.005771   -1.362273    0.000000
siesta:      6    3.219757    1.604996    0.000000
siesta:      7    0.095691  113.442331    0.000000
siesta:      8   -1.651314 -128.886132    0.000000
siesta:      9    2.631129  124.472885    0.000000
siesta:     10  -15.068690 -545.100325    0.000000
siesta:     11   -1.430743  127.577246    0.000000
siesta:     12   17.713540 -549.581049    0.000000
siesta:     13   27.089483    4.649391    0.000000
siesta:     14   32.636827 -547.961663    0.000000
siesta:     15    2.004447    0.351460    0.000000
siesta:     16   -2.483208    2.027425    0.000000
siesta:     17    2.221062    0.945572    0.000000
siesta:     18   -0.142398    1.567474    0.000000
siesta:     19  -26.384140   -0.859911    0.000000
siesta:     20  -33.680934 -399.403961    0.000000
siesta:     21   22.435790  550.216991    0.000000
siesta:     22   -3.195604 -130.614698    0.000000
siesta:     23   34.456665  548.338566    0.000000
siesta:     24   26.760890   -6.545181    0.000000
siesta:     25   -2.362194   -1.483293    0.000000
siesta:     26   -1.120489   -3.038059    0.000000
siesta:     27    3.630493    1.503435    0.000000
siesta:     28   -0.513058    6.483571    0.000000
siesta:     29   -0.390376   -6.441534    0.000000
siesta:     30  -23.126512  550.354636    0.000000
siesta:     31   -3.823119 -121.427955    0.000000
siesta:     32   -3.101405  551.554754    0.000000
siesta:     33   -0.013373 -131.064450    0.000000
siesta:     34   21.008615  556.813595    0.000000
siesta:     35   22.082525   -5.472034    0.000000
siesta:     36   -0.170947    2.562563    0.000000
siesta:     37    0.146830   -0.954053    0.000000
siesta:     38   -0.038256    0.821270    0.000000
siesta:     39    2.619930   -2.260493    0.000000
siesta:     40  -27.078024   -2.369555    0.000000
siesta:     41  -25.694780  555.927774    0.000000
siesta:     42  -21.227591   -6.068840    0.000000
siesta:     43    0.269422  562.411510    0.000000
siesta:     44    0.586251    1.472424    0.000000
siesta:     45   -1.277376   -4.158805    0.000000
siesta:     46    2.988679   -2.020231    0.000000
siesta:     47    0.847185   -2.599797    0.000000
siesta:     48    0.363099    1.859678    0.000000
siesta:     49   -0.349844   -0.269369    0.000000
siesta:     50    0.558837   -0.322784    0.000000
siesta:     51    0.907187    0.525845    0.000000
siesta:     52   -3.332969    1.614228    0.000000
siesta:     53    0.381200    0.428849    0.000000
siesta:     54    0.388271   -0.546390    0.000000
siesta:     55    0.486464    6.755704    0.000000
siesta:     56    0.370880   -6.617335    0.000000
siesta:     57   -2.161559    1.613976    0.000000
siesta:     58    0.126969    1.222988    0.000000
siesta:     59   -1.268612    3.086592    0.000000
siesta:     60   -2.892584   -1.089344    0.000000
siesta:     61   -0.473967 -412.956240    0.000000
siesta:     62   -0.757267    0.430502    0.000000
siesta:     63    0.591240   -1.427186    0.000000
siesta:     64   23.890238    2.926725    0.000000
siesta:     65   17.404465 -551.773153    0.000000
siesta:     66  -22.810857    3.745786    0.000000
siesta:     67  -17.758574 -554.389298    0.000000
siesta:     68   -1.861439   -0.600310    0.000000
siesta:     69    2.982277    2.548616    0.000000
siesta:     70    5.565761 -543.876671    0.000000
siesta:     71   -0.503129  127.219650    0.000000
siesta:     72   -0.567353 -548.146166    0.000000
siesta: ----------------------------------------
siesta:    Tot   -0.217426   -0.057342    0.000000

siesta: Stress tensor (static) (eV/Ang**3):
siesta:    -0.457950   -0.001086    0.000000
siesta:    -0.001086   -1.678862    0.000000
siesta:     0.000000    0.000000   -0.000204

siesta: Cell volume =       1893.226884 Ang**3

siesta: Pressure (static):
siesta:                Solid            Molecule  Units
siesta:           0.00775828          0.11760274  Ry/Bohr**3
siesta:           0.71233872         10.79788407  eV/Ang**3
siesta:        1141.30478282      17300.30454676  kBar
(Free)E+ p_basis*V_orbitals  =       -9980.300174
(Free)Eharris+ p_basis*V_orbitals  =       -9980.295828

siesta: Electric dipole (a.u.)  =    0.000000    0.000000    0.000000
siesta: Electric dipole (Debye) =    0.000000    0.000000    0.000000

* Maximum dynamic memory allocated : Node    0 =   160 MB
* Maximum dynamic memory allocated : Node    1 =    63 MB
* Maximum dynamic memory allocated : Node    2 =    64 MB
* Maximum dynamic memory allocated : Node    3 =   146 MB
* Maximum dynamic memory allocated : Node    4 =   155 MB
* Maximum dynamic memory allocated : Node    5 =    56 MB
* Maximum dynamic memory allocated : Node    6 =    57 MB
* Maximum dynamic memory allocated : Node    7 =   147 MB
* Maximum dynamic memory allocated : Node    8 =   141 MB
* Maximum dynamic memory allocated : Node    9 =    55 MB
* Maximum dynamic memory allocated : Node   10 =    58 MB
* Maximum dynamic memory allocated : Node   11 =   135 MB

* Maximum memory occured during matrixMtoO                    

timer: CPU execution times:
timer:  Routine       Calls   Time/call    Tot.time        %
timer:  siesta            1    6881.906    6881.906   100.00
timer:  Setup             1       3.266       3.266     0.05
timer:  bands             3     422.701    1268.102    18.43
timer:  writewave         1       0.011       0.011     0.00
timer:  KSV_init          1       0.002       0.002     0.00
timer:  IterMD            1    5603.787    5603.787    81.43
timer:  hsparse           1       0.284       0.284     0.00
timer:  overlap           1       5.767       5.767     0.08
timer:  IterSCF           1    5449.049    5449.049    79.18
timer:  kinefsm           2       2.941       5.881     0.09
timer:  nlefsm            2      19.901      39.802     0.58
timer:  DHSCF             2     102.875     205.751     2.99
timer:  DHSCF1            1       1.189       1.189     0.02
timer:  DHSCF2            1      30.782      30.782     0.45
timer:  REORD            18       0.004       0.067     0.00
timer:  POISON            3       0.674       2.021     0.03
timer:  DHSCF3            2      73.679     147.358     2.14
timer:  rhoofd            2      15.367      30.734     0.45
timer:  cellXC            2       2.804       5.608     0.08
timer:  vmat              2      34.816      69.631     1.01
timer:  MolMec            2       0.000       0.000     0.00
timer:  diagon            1    5291.724    5291.724    76.89
timer:  c-eigval        352      10.451    3678.820    53.46
timer:  c-buildHS       352       0.033      11.620     0.17
timer:  cdiag           583      10.734    6257.664    90.93
timer:  cdiag1          583       0.554     322.702     4.69
timer:  cdiag2          583       3.143    1832.098    26.62
timer:  cdiag3          583       6.553    3820.317    55.51
timer:  cdiag4          583       0.201     117.194     1.70
timer:  c-eigvec        231      11.243    2597.177    37.74
timer:  c-buildD        231       1.222     282.211     4.10
timer:  DHSCF4            1      26.369      26.369     0.38
timer:  dfscf             1      24.322      24.322     0.35
timer:  overfsm           1       0.310       0.310     0.00
timer:  optical           1       6.104       6.104     0.09
  

elaps: ELAPSED times:
elaps:  Routine       Calls   Time/call    Tot.time        %
elaps:  siesta            1     599.843     599.843   100.00
elaps:  Setup             1       0.285       0.285     0.05
elaps:  bands             3      36.859     110.578    18.43
elaps:  writewave         1       0.002       0.002     0.00
elaps:  KSV_init          1       0.000       0.000     0.00
elaps:  IterMD            1     488.435     488.435    81.43
elaps:  hsparse           1       0.027       0.027     0.00
elaps:  overlap           1       0.715       0.715     0.12
elaps:  IterSCF           1     474.955     474.955    79.18
elaps:  kinefsm           2       0.367       0.733     0.12
elaps:  nlefsm            2       1.835       3.669     0.61
elaps:  DHSCF             2      10.267      20.534     3.42
elaps:  DHSCF1            1       0.101       0.101     0.02
elaps:  DHSCF2            1       2.685       2.685     0.45
elaps:  REORD            18       0.000       0.005     0.00
elaps:  POISON            3       0.059       0.178     0.03
elaps:  DHSCF3            2       6.415      12.830     2.14
elaps:  rhoofd            2       2.816       5.632     0.94
elaps:  cellXC            2       0.241       0.482     0.08
elaps:  vmat              2       3.027       6.054     1.01
elaps:  MolMec            2       0.000       0.000     0.00
elaps:  diagon            1     461.245     461.245    76.89
elaps:  c-eigval        352       0.911     320.667    53.46
elaps:  c-buildHS       352       0.004       1.273     0.21
elaps:  cdiag           583       0.932     543.340    90.58
elaps:  cdiag1          583       0.048      27.930     4.66
elaps:  cdiag2          583       0.274     159.865    26.65
elaps:  cdiag3          583       0.572     333.708    55.63
elaps:  cdiag4          583       0.017       9.940     1.66
elaps:  c-eigvec        231       0.973     224.706    37.46
elaps:  c-buildD        231       0.114      26.255     4.38
elaps:  DHSCF4            1       4.914       4.914     0.82
elaps:  dfscf             1       4.570       4.570     0.76
elaps:  overfsm           1       0.033       0.033     0.01
elaps:  optical           1       0.000       0.000     0.00
  
>> End of run:  14-APR-2016  14:51:19
