Siesta Version:                                        siesta-3.2-pl-3
Architecture  : x86_64-unknown-linux-gnu--unknown
Compiler flags: mpiifort -g -O2 -fPIC -xSSE4.1 -fp-model source -shared-intel 
PARALLEL version

* Running on    8 nodes in parallel
>> Start of run:  23-APR-2016   2:26:44

                           ***********************       
                           *  WELCOME TO SIESTA  *       
                           ***********************       

reinit: Reading from standard input
************************** Dump of input data file ****************************
#(1) General system descriptors
SystemName            GRP_doping    # Descriptive name of the system
SystemLabel           GRP_doping    # Short name for naming files
%include STRUCT.fdf
%include KPT.fdf
%include BASIS.fdf
#%include TS.fdf # for transiesta calculation
#(4) DFT, Grid, SCF
XC.functional         GGA           # LDA or GGA (default = LDA)
XC.authors            PBE           # CA (Ceperley-Aldr) = PZ
                                    #    (Perdew-Zunger) - LDA - Default
                                    # PW92 (Perdew-Wang-92) - LDA
                                    # PBE (Perdew-Burke-Ernzerhof) - GGA
MeshCutoff            200.000000    Ry      # Default: 50.0 Ry ~ 0.444 Bohr
                                    #         100.0 Ry ~ 0.314 Bohr
MaxSCFIterations      500           # Default: 50
DM.MixingWeight       0.05          # Default: 0.25
DM.NumberPulay        10            # Default: 0
DM.PulayOnFile        F             # SystemLabel.P1, SystemLabel.P2
DM.Tolerance          1.d-4         # Default: 1.d-4
DM.UseSaveDM          .true.        # because of the bug
SCFMustConverge       .true.
NeglNonOverlapInt     F             # Default: F
#(5) Eigenvalue problem: order-N or diagonalization
SolutionMethod        Diagon        # or Transiesta
ElectronicTemperature 300.0 K       # Default: 300.0 K
#(6) Molecular dynamics and relaxations
#MD.TypeOfRun          CG            # Type of dynamics:
#MD.VariableCell       F
#MD.NumCGsteps         0           # 0 for single-point / 100 for gopt
#MD.MaxCGDispl         0.2 Bohr      # Default: 0.2 Bohr
#MD.MaxForceTol        0.02 eV/Ang   # Default: 0.04 eV/Ang
#MD.MaxStressTol       1.0 GPa       # Default: 1.0 GPa
# Geometry Constraints
#%block GeometryConstraints
#	position from 1 to 44
#%endblock GeometryConstraints
BandLinesScale   pi/a
%block BandLines
 1   0.00000000  0.00000000  0.00000000
50   0.00000000  0.07809418  0.00000000
50   0.04509075  0.07809242  0.00000000
20   0.00000000  0.00000000  0.00000000
%endblock BandLines
************************** End of input data file *****************************

reinit: -----------------------------------------------------------------------
reinit: System Name: GRP_doping
reinit: -----------------------------------------------------------------------
reinit: System Label: GRP_doping                                                  
reinit: -----------------------------------------------------------------------

initatom: Reading input for the pseudopotentials and atomic orbitals ----------
 Species number:            1  Label: B Atomic number:           5
 Species number:            2  Label: C Atomic number:           6
Ground state valence configuration:   2s02  2p01
Reading pseudopotential information in formatted form from B.psf

Valence configuration for pseudopotential generation:
2s( 2.00) rc: 1.74
2p( 1.00) rc: 1.74
3d( 0.00) rc: 1.74
4f( 0.00) rc: 1.74
Ground state valence configuration:   2s02  2p02
Reading pseudopotential information in formatted form from C.psf

Valence configuration for pseudopotential generation:
2s( 2.00) rc: 1.54
2p( 2.00) rc: 1.54
3d( 0.00) rc: 1.54
4f( 0.00) rc: 1.54
For B, standard SIESTA heuristics set lmxkb to 3
 (one more than the basis l, including polarization orbitals).
Use PS.lmax or PS.KBprojectors blocks to override.
For C, standard SIESTA heuristics set lmxkb to 3
 (one more than the basis l, including polarization orbitals).
Use PS.lmax or PS.KBprojectors blocks to override.

<basis_specs>
===============================================================================
B                    Z=   5    Mass=  10.810        Charge= 0.17977+309
Lmxo=1 Lmxkb= 3    BasisType=split      Semic=F
L=0  Nsemic=0  Cnfigmx=2
          n=1  nzeta=2  polorb=0
            splnorm:   0.15000    
               vcte:    0.0000    
               rinn:    0.0000    
                rcs:    0.0000      0.0000    
            lambdas:    1.0000      1.0000    
L=1  Nsemic=0  Cnfigmx=2
          n=1  nzeta=2  polorb=1
            splnorm:   0.15000    
               vcte:    0.0000    
               rinn:    0.0000    
                rcs:    0.0000      0.0000    
            lambdas:    1.0000      1.0000    
-------------------------------------------------------------------------------
L=0  Nkbl=1  erefs: 0.17977+309
L=1  Nkbl=1  erefs: 0.17977+309
L=2  Nkbl=1  erefs: 0.17977+309
L=3  Nkbl=1  erefs: 0.17977+309
===============================================================================
</basis_specs>

atom: Called for B                     (Z =   5)

read_vps: Pseudopotential generation method:
read_vps: ATM3      Troullier-Martins                       
Total valence charge:    3.00000

read_vps: Pseudopotential includes a core correction:
read_vps: Pseudo-core for xc-correction

xc_check: Exchange-correlation functional:
xc_check: GGA Perdew, Burke & Ernzerhof 1996
V l=0 = -2*Zval/r beyond r=  1.7165
V l=1 = -2*Zval/r beyond r=  1.7165
V l=2 = -2*Zval/r beyond r=  1.7165
V l=3 = -2*Zval/r beyond r=  1.6951
All V_l potentials equal beyond r=  1.7165
This should be close to max(r_c) in ps generation
All pots = -2*Zval/r beyond r=  1.7165

VLOCAL1: 99.0% of the norm of Vloc inside     14.733 Ry
VLOCAL1: 99.9% of the norm of Vloc inside     33.577 Ry
atom: Maximum radius for 4*pi*r*r*local-pseudopot. charge    2.04484
atom: Maximum radius for r*vlocal+2*Zval:    1.75994
GHOST: No ghost state for L =  0
GHOST: No ghost state for L =  1
GHOST: No ghost state for L =  2
GHOST: No ghost state for L =  3

KBgen: Kleinman-Bylander projectors: 
   l= 0   rc=  1.897051   el= -0.693730   Ekb=  4.595746   kbcos=  0.286105
   l= 1   rc=  1.920920   el= -0.265236   Ekb= -2.350715   kbcos= -0.315747
   l= 2   rc=  2.044840   el=  0.002055   Ekb= -0.690767   kbcos= -0.013822
   l= 3   rc=  2.149707   el=  0.003188   Ekb= -0.315358   kbcos= -0.002055

KBgen: Total number of  Kleinman-Bylander projectors:   16
atom: -------------------------------------------------------------------------

atom: SANKEY-TYPE ORBITALS:
atom: Selected multiple-zeta basis: split     

SPLIT: Orbitals with angular momentum L= 0

SPLIT: Basis orbitals for state 2s

SPLIT: PAO cut-off radius determined from an
SPLIT: energy shift=  0.007350 Ry

   izeta = 1
                 lambda =    1.000000
                     rc =    5.422032
                 energy =   -0.686029
                kinetic =    0.576707
    potential(screened) =   -1.262736
       potential(ionic) =   -3.271094

   izeta = 2
                 rmatch =    4.222573
              splitnorm =    0.150000
                 energy =   -0.602132
                kinetic =    0.858975
    potential(screened) =   -1.461107
       potential(ionic) =   -3.582536

SPLIT: Orbitals with angular momentum L= 1

SPLIT: Basis orbitals for state 2p

SPLIT: PAO cut-off radius determined from an
SPLIT: energy shift=  0.007350 Ry

   izeta = 1
                 lambda =    1.000000
                     rc =    6.790259
                 energy =   -0.258578
                kinetic =    1.481412
    potential(screened) =   -1.739989
       potential(ionic) =   -3.657461

   izeta = 2
                 rmatch =    4.608740
              splitnorm =    0.150000
                 energy =   -0.173757
                kinetic =    2.186690
    potential(screened) =   -2.360447
       potential(ionic) =   -4.464260

POLgen: Perturbative polarization orbital with L=  2

POLgen: Polarization orbital for state 2p

   izeta = 1
                     rc =    6.790259
                 energy =    0.684082
                kinetic =    1.471481
    potential(screened) =   -0.787399
       potential(ionic) =   -2.406985
atom: Total number of Sankey-type orbitals: 13

atm_pop: Valence configuration (for local Pseudopot. screening):
 2s( 2.00)                                                            
 2p( 1.00)                                                            
Vna: chval, zval:    3.00000   3.00000

Vna:  Cut-off radius for the neutral-atom potential:   6.790259
comcore: Pseudo-core radius Rcore=  2.122997

atom: _________________________________________________________________________

<basis_specs>
===============================================================================
C                    Z=   6    Mass=  12.010        Charge= 0.17977+309
Lmxo=1 Lmxkb= 3    BasisType=split      Semic=F
L=0  Nsemic=0  Cnfigmx=2
          n=1  nzeta=2  polorb=0
            splnorm:   0.15000    
               vcte:    0.0000    
               rinn:    0.0000    
                rcs:    0.0000      0.0000    
            lambdas:    1.0000      1.0000    
L=1  Nsemic=0  Cnfigmx=2
          n=1  nzeta=2  polorb=1
            splnorm:   0.15000    
               vcte:    0.0000    
               rinn:    0.0000    
                rcs:    0.0000      0.0000    
            lambdas:    1.0000      1.0000    
-------------------------------------------------------------------------------
L=0  Nkbl=1  erefs: 0.17977+309
L=1  Nkbl=1  erefs: 0.17977+309
L=2  Nkbl=1  erefs: 0.17977+309
L=3  Nkbl=1  erefs: 0.17977+309
===============================================================================
</basis_specs>

atom: Called for C                     (Z =   6)

read_vps: Pseudopotential generation method:
read_vps: ATM3      Troullier-Martins                       
Total valence charge:    4.00000

read_vps: Pseudopotential includes a core correction:
read_vps: Pseudo-core for xc-correction

xc_check: Exchange-correlation functional:
xc_check: GGA Perdew, Burke & Ernzerhof 1996
V l=0 = -2*Zval/r beyond r=  1.5227
V l=1 = -2*Zval/r beyond r=  1.5227
V l=2 = -2*Zval/r beyond r=  1.5227
V l=3 = -2*Zval/r beyond r=  1.5038
All V_l potentials equal beyond r=  1.5227
This should be close to max(r_c) in ps generation
All pots = -2*Zval/r beyond r=  1.5227

VLOCAL1: 99.0% of the norm of Vloc inside     18.722 Ry
VLOCAL1: 99.9% of the norm of Vloc inside     42.668 Ry
atom: Maximum radius for 4*pi*r*r*local-pseudopot. charge    1.83678
atom: Maximum radius for r*vlocal+2*Zval:    1.58088
GHOST: No ghost state for L =  0
GHOST: No ghost state for L =  1
GHOST: No ghost state for L =  2
GHOST: No ghost state for L =  3

KBgen: Kleinman-Bylander projectors: 
   l= 0   rc=  1.704034   el= -1.009801   Ekb=  5.335044   kbcos=  0.316824
   l= 1   rc=  1.704034   el= -0.388707   Ekb= -3.785862   kbcos= -0.366464
   l= 2   rc=  1.791422   el=  0.001971   Ekb= -0.970471   kbcos= -0.009212
   l= 3   rc=  1.859892   el=  0.003065   Ekb= -0.399525   kbcos= -0.001223

KBgen: Total number of  Kleinman-Bylander projectors:   16
atom: -------------------------------------------------------------------------

atom: SANKEY-TYPE ORBITALS:
atom: Selected multiple-zeta basis: split     

SPLIT: Orbitals with angular momentum L= 0

SPLIT: Basis orbitals for state 2s

SPLIT: PAO cut-off radius determined from an
SPLIT: energy shift=  0.007350 Ry

   izeta = 1
                 lambda =    1.000000
                     rc =    4.632753
                 energy =   -1.002270
                kinetic =    0.855760
    potential(screened) =   -1.858031
       potential(ionic) =   -5.417575

   izeta = 2
                 rmatch =    3.431921
              splitnorm =    0.150000
                 energy =   -0.867111
                kinetic =    1.300804
    potential(screened) =   -2.167915
       potential(ionic) =   -5.962684

SPLIT: Orbitals with angular momentum L= 1

SPLIT: Basis orbitals for state 2p

SPLIT: PAO cut-off radius determined from an
SPLIT: energy shift=  0.007350 Ry

   izeta = 1
                 lambda =    1.000000
                     rc =    5.658549
                 energy =   -0.381140
                kinetic =    2.399701
    potential(screened) =   -2.780841
       potential(ionic) =   -6.206085

   izeta = 2
                 rmatch =    3.653288
              splitnorm =    0.150000
                 energy =   -0.249149
                kinetic =    3.542762
    potential(screened) =   -3.791911
       potential(ionic) =   -7.581078

POLgen: Perturbative polarization orbital with L=  2

POLgen: Polarization orbital for state 2p

   izeta = 1
                     rc =    5.658549
                 energy =    1.109913
                kinetic =    2.304789
    potential(screened) =   -1.194876
       potential(ionic) =   -4.013592
atom: Total number of Sankey-type orbitals: 13

atm_pop: Valence configuration (for local Pseudopot. screening):
 2s( 2.00)                                                            
 2p( 2.00)                                                            
Vna: chval, zval:    4.00000   4.00000

Vna:  Cut-off radius for the neutral-atom potential:   5.658549
comcore: Pseudo-core radius Rcore=  1.791422

atom: _________________________________________________________________________

prinput: Basis input ----------------------------------------------------------

PAO.BasisType split     

%block ChemicalSpeciesLabel
    1    5 B                       # Species index, atomic number, species label
    2    6 C                       # Species index, atomic number, species label
%endblock ChemicalSpeciesLabel

%block PAO.Basis                 # Define Basis set
B                     2                    # Species label, number of l-shells
 n=2   0   2                         # n, l, Nzeta 
   5.422      4.223   
   1.000      1.000   
 n=2   1   2 P   1                   # n, l, Nzeta, Polarization, NzetaPol
   6.790      4.609   
   1.000      1.000   
C                     2                    # Species label, number of l-shells
 n=2   0   2                         # n, l, Nzeta 
   4.633      3.432   
   1.000      1.000   
 n=2   1   2 P   1                   # n, l, Nzeta, Polarization, NzetaPol
   5.659      3.653   
   1.000      1.000   
%endblock PAO.Basis

prinput: ----------------------------------------------------------------------

coor:   Atomic-coordinates input format  =     Fractional

siesta: Atomic coordinates (Bohr) and species
siesta:      2.30256  38.89134   0.00000  1        1
siesta:      2.30256  41.57980   0.00000  1        2
siesta:      9.28770  26.79272   0.00000  1        3
siesta:      9.28770  29.48119   0.00000  1        4
siesta:      4.63094  18.72698   0.00000  1        5
siesta:      4.63094  21.41544   0.00000  1        6
siesta:      6.95932  22.75985   0.00000  1        7
siesta:      6.95932  25.44831   0.00000  1        8
siesta:     -4.68258  10.66124   0.00000  1        9
siesta:     -4.68258  13.34970   0.00000  1       10
siesta:     -2.35420  14.69411   0.00000  1       11
siesta:     -2.35420  17.38257   0.00000  1       12
siesta:     -0.02582  18.72698   0.00000  1       13
siesta:     -0.02582  21.41544   0.00000  1       14
siesta:    -11.66772  22.75985   0.00000  1       15
siesta:    -11.66772  25.44831   0.00000  1       16
siesta:     -9.33934  26.79272   0.00000  1       17
siesta:     -9.33934  29.48119   0.00000  1       18
siesta:     -2.35420  30.82560   0.00000  1       19
siesta:     -2.35420  33.51406   0.00000  1       20
siesta:     -7.01096  30.82560   0.00000  1       21
siesta:     -7.01096  33.51406   0.00000  1       22
siesta:     -0.02582  34.85847   0.00000  1       23
siesta:     -0.02582  37.54693   0.00000  1       24
siesta:     -0.02582   2.59549   0.00000  2       25
siesta:     -0.02582   5.28395   0.00000  2       26
siesta:     -2.35420  38.89134   0.00000  2       27
siesta:     -2.35420  41.57980   0.00000  2       28
siesta:      4.63094  34.85847   0.00000  2       29
siesta:      4.63094  37.54693   0.00000  2       30
siesta:      6.95932  30.82560   0.00000  2       31
siesta:      6.95932  33.51406   0.00000  2       32
siesta:     -4.68258  34.85847   0.00000  2       33
siesta:     -4.68258  37.54693   0.00000  2       34
siesta:      2.30256   6.62836   0.00000  2       35
siesta:      2.30256   9.31683   0.00000  2       36
siesta:      4.63094  10.66124   0.00000  2       37
siesta:      4.63094  13.34970   0.00000  2       38
siesta:      6.95932  14.69411   0.00000  2       39
siesta:      6.95932  17.38257   0.00000  2       40
siesta:      9.28770  18.72698   0.00000  2       41
siesta:      9.28770  21.41544   0.00000  2       42
siesta:     11.61608  22.75985   0.00000  2       43
siesta:     11.61608  25.44831   0.00000  2       44
siesta:     -2.35420   6.62836   0.00000  2       45
siesta:     -2.35420   9.31683   0.00000  2       46
siesta:     -0.02582  10.66124   0.00000  2       47
siesta:     -0.02582  13.34970   0.00000  2       48
siesta:      2.30256  14.69411   0.00000  2       49
siesta:      2.30256  17.38257   0.00000  2       50
siesta:      2.30256  22.75985   0.00000  2       51
siesta:      2.30256  25.44831   0.00000  2       52
siesta:     -7.01096  14.69411   0.00000  2       53
siesta:     -7.01096  17.38257   0.00000  2       54
siesta:     -4.68258  18.72698   0.00000  2       55
siesta:     -4.68258  21.41544   0.00000  2       56
siesta:     -2.35420  22.75985   0.00000  2       57
siesta:     -2.35420  25.44831   0.00000  2       58
siesta:     -9.33934  18.72698   0.00000  2       59
siesta:     -9.33934  21.41544   0.00000  2       60
siesta:     -7.01096  22.75985   0.00000  2       61
siesta:     -7.01096  25.44831   0.00000  2       62
siesta:      4.63094  26.79272   0.00000  2       63
siesta:      4.63094  29.48119   0.00000  2       64
siesta:     -0.02582  26.79272   0.00000  2       65
siesta:     -0.02582  29.48119   0.00000  2       66
siesta:     -4.68258  26.79272   0.00000  2       67
siesta:     -4.68258  29.48119   0.00000  2       68
siesta:      2.30256  30.82560   0.00000  2       69
siesta:      2.30256  33.51406   0.00000  2       70
siesta:     -0.02582  42.92421   0.00000  2       71
siesta:     -0.02582  45.61267   0.00000  2       72

siesta: System type = slab      

initatomlists: Number of atoms, orbitals, and projectors:     72   936  1152

siesta: ******************** Simulation parameters ****************************
siesta:
siesta: The following are some of the parameters of the simulation.
siesta: A complete list of the parameters used, including default values,
siesta: can be found in file out.fdf
siesta:
redata: Non-Collinear-spin run           =     F
redata: SpinPolarized (Up/Down) run      =     F
redata: Number of spin components        =     1
redata: Long output                      =     F
redata: Number of Atomic Species         =        2
redata: Charge density info will appear in .RHO file
redata: Write Mulliken Pop.              =     NO
redata: Mesh Cutoff                      =   200.0000  Ry
redata: Net charge of the system         =     0.0000 |e|
redata: Max. number of SCF Iter          =      500
redata: SCF convergence failure will abort job
redata: Performing Pulay mixing using    =    10 iterations
redata: Mix DM in first SCF step ?       =     F
redata: Write Pulay info on disk?        =     F
redata: Discard 1st Pulay DM after  kick =     F
redata: New DM Mixing Weight             =     0.0500
redata: New DM Occupancy tolerance       = 0.000000000001
redata: No kicks to SCF
redata: DM Mixing Weight for Kicks       =     0.5000
redata: DM Tolerance for SCF             =     0.000100
redata: Require Energy convergence for SCF =     F
redata: DM Energy tolerance for SCF      =     0.000100 eV
redata: Require Harris convergence for SCF =     F
redata: DM Harris energy tolerance for SCF =     0.000100 eV
redata: Using Saved Data (generic)   =     F
redata: Use continuation files for DM    =     T
redata: Neglect nonoverlap interactions  =     F
redata: Method of Calculation            =     Diagonalization
redata: Divide and Conquer               =     T
redata: Electronic Temperature           =     0.0019  Ry
redata: Fix the spin of the system       =     F
redata: Dynamics option                  =     Verlet MD run
redata: Initial MD time step             =        1
redata:   Final MD time step             =        1
redata: Length of MD time step           =     1.0000  fs
redata: Initial Temperature of MD run    =     0.0000  K
redata: Perform a MD quench              =     F
redata: ***********************************************************************
Total number of electrons:   264.000000
Total ionic charge:   264.000000

* ProcessorY, Blocksize:    2  24

k-point displ. along   1 input, could be:     0.50    0.00
k-point displ. along   2 input, could be:     0.50    0.00
 Kpoints in:          231 . Kpoints trimmed:          231

siesta: k-grid: Number of k-points =   231
siesta: k-grid: Cutoff (effective) =     5.000 Ang
siesta: k-grid: Supercell and displacements
siesta: k-grid:   21   0   0      0.500
siesta: k-grid:    0  21   0      0.500
siesta: k-grid:    0   0   1      0.000
Naive supercell factors:     2    2    2

superc: Internal auxiliary supercell:     2 x     2 x     2  =       8
superc: Number of atoms, orbitals, and projectors:    576   7488   9216

* Maximum dynamic memory allocated =     4 MB

siesta:                 ==============================
                            Begin MD step =      1
                        ==============================

superc: Internal auxiliary supercell:     2 x     2 x     2  =       8
superc: Number of atoms, orbitals, and projectors:    576   7488   9216

outcell: Unit cell vectors (Ang):
       12.804619    7.392750    0.000000
        0.000000   14.785500    0.000000
        0.000000    0.000000   10.000000

outcell: Cell vector modules (Ang)   :   14.785500   14.785500   10.000000
outcell: Cell angles (23,13,12) (deg):     90.0000     90.0000     60.0000
outcell: Cell volume (Ang**3)        :   1893.2269
New_DM. Step:     1
Initializing Density Matrix...

InitMesh: MESH =   120 x   120 x    90 =     1296000
InitMesh: Mesh cutoff (required, used) =   200.000   223.865 Ry

* Maximum dynamic memory allocated =   230 MB

stepf: Fermi-Dirac step function

siesta: Program's energy decomposition (eV):
siesta: Ebs     =     -5446.761453
siesta: Eions   =     15329.650002
siesta: Ena     =      4135.383214
siesta: Ekin    =      5112.466478
siesta: Enl     =       842.652128
siesta: DEna    =        -0.000007
siesta: DUscf   =         0.000000
siesta: DUext   =         0.000000
siesta: Exc     =     -4201.017267
siesta: eta*DQ  =         0.000000
siesta: Emadel  =         0.000000
siesta: Emeta   =         0.000000
siesta: Emolmec =         0.000000
siesta: Ekinion =         0.000000
siesta: Eharris =     -9237.717152
siesta: Etot    =     -9440.165456
siesta: FreeEng =     -9440.165456

siesta: iscf   Eharris(eV)      E_KS(eV)   FreeEng(eV)   dDmax  Ef(eV)
siesta:    1    -9237.7172    -9440.1655    -9440.1655  7.2882 -8.7172
timer: Routine,Calls,Time,% = IterSCF        1    4462.710  99.74
elaps: Routine,Calls,Wall,% = IterSCF        1     558.504  99.74
siesta:    2   -14122.1132    -8414.8404    -8414.9223 17.0886 -4.5735
siesta:    3    -9302.2685    -9246.2750    -9246.3153  2.3836 -5.8579
siesta:    4    -9205.5282    -9185.2625    -9185.2795  1.5134 -5.2859
siesta:    5    -9135.2689    -9128.9639    -9128.9696  1.2730 -4.7443
siesta:    6    -9099.9130    -9100.0006    -9100.0797  0.9519 -4.9592
siesta:    7    -9092.6496    -9087.4895    -9087.4898  0.9071 -4.9594
siesta:    8    -9084.5902    -9070.5254    -9070.5322  0.6704 -5.0423
siesta:    9    -9082.6985    -9065.0445    -9065.0927  0.6339 -5.0921
siesta:   10    -9081.8900    -9061.7767    -9061.8111  0.5062 -5.1787
siesta:   11    -9080.4807    -9059.0921    -9059.1679  0.4300 -5.1817
siesta:   12    -9079.6664    -9059.2018    -9059.2718  0.3636 -5.1926
siesta:   13    -9079.5324    -9059.2908    -9059.3669  0.2041 -5.2179
siesta:   14    -9079.1341    -9061.9008    -9061.9878  0.1737 -5.1958
siesta:   15    -9078.9546    -9062.8888    -9062.9673  0.1671 -5.1947
siesta:   16    -9078.8111    -9062.7401    -9062.8161  0.1750 -5.1783
siesta:   17    -9078.7364    -9065.2365    -9065.3135  0.2460 -5.1806
siesta:   18    -9078.6060    -9065.9728    -9066.0447  0.2172 -5.1886
siesta:   19    -9078.5085    -9069.0273    -9069.1023  0.0842 -5.2351
siesta:   20    -9078.5016    -9070.8293    -9070.9154  0.0813 -5.2414
siesta:   21    -9078.4896    -9073.4210    -9073.5028  0.0580 -5.2533
siesta:   22    -9078.4836    -9075.6856    -9075.7666  0.0314 -5.2552
siesta:   23    -9078.4747    -9076.8342    -9076.9135  0.0155 -5.2560
siesta:   24    -9078.4723    -9077.1524    -9077.2340  0.0148 -5.2554
siesta:   25    -9078.4707    -9077.8351    -9077.9170  0.0117 -5.2515
siesta:   26    -9078.4697    -9078.0873    -9078.1688  0.0078 -5.2512
siesta:   27    -9078.4688    -9078.1612    -9078.2428  0.0038 -5.2507
siesta:   28    -9078.4684    -9078.2964    -9078.3783  0.0029 -5.2496
siesta:   29    -9078.4684    -9078.3535    -9078.4356  0.0020 -5.2486
siesta:   30    -9078.4685    -9078.3902    -9078.4723  0.0017 -5.2478
siesta:   31    -9078.4686    -9078.4065    -9078.4883  0.0016 -5.2479
siesta:   32    -9078.4685    -9078.4277    -9078.5094  0.0008 -5.2483
siesta:   33    -9078.4685    -9078.4366    -9078.5184  0.0005 -5.2484
siesta:   34    -9078.4685    -9078.4396    -9078.5214  0.0004 -5.2483
siesta:   35    -9078.4685    -9078.4339    -9078.5158  0.0004 -5.2483
siesta:   36    -9078.4685    -9078.4373    -9078.5192  0.0003 -5.2483
siesta:   37    -9078.4685    -9078.4541    -9078.5360  0.0002 -5.2484
siesta:   38    -9078.4685    -9078.4599    -9078.5418  0.0001 -5.2484
siesta:   39    -9078.4685    -9078.4626    -9078.5445  0.0001 -5.2484
siesta:   40    -9078.4685    -9078.4667    -9078.5485  0.0001 -5.2484

siesta: E_KS(eV) =            -9078.4677

siesta: E_KS - E_eggbox =     -9078.4677

siesta: Atomic forces (eV/Ang):
----------------------------------------
   Tot   -0.136129   -0.111419    0.000000
----------------------------------------
   Max  558.412531
   Res  133.871738    sqrt( Sum f_i^2 / 3N )
----------------------------------------
   Max  558.412531    constrained

Stress-tensor-Voigt (kbar):     -742.10    -2493.83       -0.69      -34.02        0.00        0.00
(Free)E + p*V (eV/cell)    -7803.7018
Target enthalpy (eV/cell)    -9078.5496

siesta: Stress tensor (static) (eV/Ang**3):
        -0.463179   -0.021234    0.000000
        -0.021234   -1.556510    0.000000
         0.000000    0.000000   -0.000430

siesta: Pressure (static):       1078.87403969  kBar

siesta: Stress tensor (total) (eV/Ang**3):
        -0.463179   -0.021234    0.000000
        -0.021234   -1.556510    0.000000
         0.000000    0.000000   -0.000430

siesta: Pressure (total):       1078.87403969  kBar

siesta: Temp_ion =       0.000 K

* Maximum dynamic memory allocated =   247 MB
Computing bands...

siesta: Program's energy decomposition (eV):
siesta: Ebs     =     -4055.134022
siesta: Eions   =     15329.650002
siesta: Ena     =      4135.383214
siesta: Ekin    =      7916.213571
siesta: Enl     =      -778.096891
siesta: DEna    =      -756.706325
siesta: DUscf   =       102.229696
siesta: DUext   =         0.000000
siesta: Exc     =     -4367.840976
siesta: eta*DQ  =         0.000000
siesta: Emadel  =         0.000000
siesta: Emeta   =         0.000000
siesta: Emolmec =         0.000000
siesta: Ekinion =         0.000000
siesta: Eharris =     -9078.468456
siesta: Etot    =     -9078.467713
siesta: FreeEng =     -9078.549564

siesta: Final energy (eV):
siesta:  Band Struct. =   -4055.134022
siesta:       Kinetic =    7916.213571
siesta:       Hartree =   25783.631959
siesta:    Ext. field =       0.000000
siesta:   Exch.-corr. =   -4367.840976
siesta:  Ion-electron =  -59192.572217
siesta:       Ion-ion =   20782.099949
siesta:       Ekinion =       0.000000
siesta:         Total =   -9078.467713

siesta: Atomic forces (eV/Ang):
siesta:      1   -2.166253  106.740390    0.000000
siesta:      2    8.058314 -397.839595    0.000000
siesta:      3    9.608332   -1.690342    0.000000
siesta:      4   -0.408745    5.465408    0.000000
siesta:      5   -1.626791   -4.927677    0.000000
siesta:      6   -5.013698    4.620552    0.000000
siesta:      7    4.583965   -3.334211    0.000000
siesta:      8   -5.821163    3.582431    0.000000
siesta:      9  -22.541547  399.090496    0.000000
siesta:     10  -19.744822    3.037700    0.000000
siesta:     11  -22.445401  400.039521    0.000000
siesta:     12  -19.434338    1.113292    0.000000
siesta:     13   -0.736427  409.595244    0.000000
siesta:     14   -0.032268    3.819298    0.000000
siesta:     15   -2.710284   -3.708583    0.000000
siesta:     16   -6.289812    2.758088    0.000000
siesta:     17   -1.039896   -1.324763    0.000000
siesta:     18   -4.132077    1.667666    0.000000
siesta:     19  -19.982569    0.573235    0.000000
siesta:     20  -18.839559 -397.315987    0.000000
siesta:     21   -0.431352    0.304120    0.000000
siesta:     22    0.634196    6.249535    0.000000
siesta:     23   -2.374611  107.988978    0.000000
siesta:     24    2.753355 -379.766721    0.000000
siesta:     25    6.424619  548.249131    0.000000
siesta:     26  -10.721671 -131.630702    0.000000
siesta:     27    6.696526  117.741523    0.000000
siesta:     28  -14.439412 -404.958162    0.000000
siesta:     29   25.759022    5.528037    0.000000
siesta:     30   25.799033 -544.066414    0.000000
siesta:     31   -0.944496    3.648926    0.000000
siesta:     32   -1.874952    1.494704    0.000000
siesta:     33  -19.371479   -2.885493    0.000000
siesta:     34  -33.101979 -407.922264    0.000000
siesta:     35   26.588238  554.276442    0.000000
siesta:     36   -4.495355 -127.556699    0.000000
siesta:     37   36.379723  550.775568    0.000000
siesta:     38   23.642421   -3.171433    0.000000
siesta:     39   -1.913827   -1.593440    0.000000
siesta:     40    6.822774   -2.935969    0.000000
siesta:     41   -2.252025    0.067590    0.000000
siesta:     42    6.414965   -3.224250    0.000000
siesta:     43    1.074357    4.701380    0.000000
siesta:     44    1.480515   -6.462616    0.000000
siesta:     45  -19.796231  401.305469    0.000000
siesta:     46   -7.600470 -115.105320    0.000000
siesta:     47   -2.273632  393.437139    0.000000
siesta:     48   -3.902117 -114.933314    0.000000
siesta:     49   26.195419  408.764304    0.000000
siesta:     50   19.663511   -0.599228    0.000000
siesta:     51   -0.302543    2.589109    0.000000
siesta:     52   -1.533505    0.603951    0.000000
siesta:     53   -0.080927    0.186139    0.000000
siesta:     54   -2.665329   -1.707936    0.000000
siesta:     55   -0.305302    2.144674    0.000000
siesta:     56   -0.666384    0.921469    0.000000
siesta:     57   -2.411813    1.599775    0.000000
siesta:     58   -0.656949   -0.076046    0.000000
siesta:     59   -0.335293    1.061371    0.000000
siesta:     60    0.617942   -3.531896    0.000000
siesta:     61    1.321340    0.779966    0.000000
siesta:     62    3.987684   -1.814692    0.000000
siesta:     63   -1.340860    1.550997    0.000000
siesta:     64   -0.959026   -1.982362    0.000000
siesta:     65    1.097889   -1.414668    0.000000
siesta:     66   -5.265975 -558.412531    0.000000
siesta:     67   -0.092291   -1.079791    0.000000
siesta:     68    2.564199   -2.822647    0.000000
siesta:     69   22.280730    7.580739    0.000000
siesta:     70   16.795456 -550.235736    0.000000
siesta:     71    4.587126  120.877168    0.000000
siesta:     72    3.107678 -406.611459    0.000000
siesta: ----------------------------------------
siesta:    Tot   -0.136129   -0.111419    0.000000

siesta: Stress tensor (static) (eV/Ang**3):
siesta:    -0.463179   -0.021234    0.000000
siesta:    -0.021234   -1.556510    0.000000
siesta:     0.000000    0.000000   -0.000430

siesta: Cell volume =       1893.226884 Ang**3

siesta: Pressure (static):
siesta:                Solid            Molecule  Units
siesta:           0.00733389          0.10164369  Ry/Bohr**3
siesta:           0.67337293          9.33257799  eV/Ang**3
siesta:        1078.87403969      14952.60000566  kBar
(Free)E+ p_basis*V_orbitals  =       -9040.229066
(Free)Eharris+ p_basis*V_orbitals  =       -9040.230872

siesta: Electric dipole (a.u.)  =    0.000000    0.000000    0.000000
siesta: Electric dipole (Debye) =    0.000000    0.000000    0.000000

* Maximum dynamic memory allocated : Node    0 =   247 MB
* Maximum dynamic memory allocated : Node    1 =    86 MB
* Maximum dynamic memory allocated : Node    2 =    90 MB
* Maximum dynamic memory allocated : Node    3 =   235 MB
* Maximum dynamic memory allocated : Node    4 =   232 MB
* Maximum dynamic memory allocated : Node    5 =    84 MB
* Maximum dynamic memory allocated : Node    6 =    87 MB
* Maximum dynamic memory allocated : Node    7 =   212 MB

* Maximum memory occured during matrixMtoO                    

timer: CPU execution times:
timer:  Routine       Calls   Time/call    Tot.time        %
timer:  siesta            1  176556.265  176556.265   100.00
timer:  Setup             1       3.091       3.091     0.00
timer:  bands             3     269.400     808.200     0.46
timer:  writewave         1       0.021       0.021     0.00
timer:  KSV_init          1       0.001       0.001     0.00
timer:  IterMD            1  175739.130  175739.130    99.54
timer:  hsparse           1       0.399       0.399     0.00
timer:  overlap           1       7.808       7.808     0.00
timer:  IterSCF          40    4387.284  175491.376    99.40
timer:  kinefsm           2       4.051       8.102     0.00
timer:  nlefsm            2      22.138      44.277     0.03
timer:  DHSCF            41     129.382    5304.677     3.00
timer:  DHSCF1            1       1.000       1.000     0.00
timer:  DHSCF2            1      45.883      45.883     0.03
timer:  REORD           330       0.010       3.302     0.00
timer:  POISON           42       2.234      93.810     0.05
timer:  DHSCF3           41     127.099    5211.058     2.95
timer:  rhoofd           41      26.600    1090.590     0.62
timer:  cellXC           41       3.513     144.019     0.08
timer:  vmat             41      62.952    2581.016     1.46
timer:  MolMec            2       0.000       0.000     0.00
timer:  diagon           40    4256.843  170273.708    96.44
timer:  c-eigval       9361       6.678   62508.353    35.40
timer:  c-buildHS      9361       0.124    1159.355     0.66
timer:  cdiag         18601       6.891  128175.531    72.60
timer:  cdiag1        18601       0.428    7963.148     4.51
timer:  cdiag2        18601       1.901   35358.533    20.03
timer:  cdiag3        18601       3.947   73420.341    41.58
timer:  cdiag4        18601       0.224    4158.322     2.36
timer:  c-eigvec       9240       7.292   67375.330    38.16
timer:  c-buildD       9240       4.453   41147.198    23.31
timer:  DHSCF4            1      44.545      44.545     0.03
timer:  dfscf             1      41.850      41.850     0.02
timer:  overfsm           1       0.496       0.496     0.00
timer:  optical           1       5.104       5.104     0.00
  

elaps: ELAPSED times:
elaps:  Routine       Calls   Time/call    Tot.time        %
elaps:  siesta            1   22095.366   22095.366   100.00
elaps:  Setup             1       0.385       0.385     0.00
elaps:  bands             3      33.726     101.177     0.46
elaps:  writewave         1       0.002       0.002     0.00
elaps:  KSV_init          1       0.000       0.000     0.00
elaps:  IterMD            1   21993.130   21993.130    99.54
elaps:  hsparse           1       0.050       0.050     0.00
elaps:  overlap           1       0.988       0.988     0.00
elaps:  IterSCF          40     549.053   21962.137    99.40
elaps:  kinefsm           2       0.507       1.015     0.00
elaps:  nlefsm            2       2.910       5.819     0.03
elaps:  DHSCF            41      16.326     669.347     3.03
elaps:  DHSCF1            1       0.127       0.127     0.00
elaps:  DHSCF2            1       5.739       5.739     0.03
elaps:  REORD           330       0.001       0.437     0.00
elaps:  POISON           42       0.280      11.742     0.05
elaps:  DHSCF3           41      15.901     651.921     2.95
elaps:  rhoofd           41       7.251     297.285     1.35
elaps:  cellXC           41       0.439      17.990     0.08
elaps:  vmat             41       7.875     322.878     1.46
elaps:  MolMec            2       0.000       0.000     0.00
elaps:  diagon           40     532.749   21309.951    96.45
elaps:  c-eigval       9361       0.835    7820.925    35.40
elaps:  c-buildHS      9361       0.017     157.678     0.71
elaps:  cdiag         18601       0.853   15873.668    71.84
elaps:  cdiag1        18601       0.053     986.673     4.47
elaps:  cdiag2        18601       0.238    4424.176    20.02
elaps:  cdiag3        18601       0.495    9199.137    41.63
elaps:  cdiag4        18601       0.028     520.982     2.36
elaps:  c-eigvec       9240       0.899    8310.036    37.61
elaps:  c-buildD       9240       0.571    5272.819    23.86
elaps:  DHSCF4            1      11.265      11.265     0.05
elaps:  dfscf             1      10.729      10.729     0.05
elaps:  overfsm           1       0.060       0.060     0.00
elaps:  optical           1       0.000       0.000     0.00
  
>> End of run:  23-APR-2016   8:34:59
