Siesta Version:                                        siesta-3.2-pl-3
Architecture  : x86_64-unknown-linux-gnu--unknown
Compiler flags: mpiifort -g -O2 -fPIC -xSSE4.1 -fp-model source -shared-intel 
PARALLEL version

* Running on    8 nodes in parallel
>> Start of run:  25-APR-2016  20:05:19

                           ***********************       
                           *  WELCOME TO SIESTA  *       
                           ***********************       

reinit: Reading from standard input
************************** Dump of input data file ****************************
#(1) General system descriptors
SystemName            GRP_doping    # Descriptive name of the system
SystemLabel           GRP_doping    # Short name for naming files
%include STRUCT.fdf
%include KPT.fdf
%include BASIS.fdf
#%include TS.fdf # for transiesta calculation
#(4) DFT, Grid, SCF
XC.functional         GGA           # LDA or GGA (default = LDA)
XC.authors            PBE           # CA (Ceperley-Aldr) = PZ
                                    #    (Perdew-Zunger) - LDA - Default
                                    # PW92 (Perdew-Wang-92) - LDA
                                    # PBE (Perdew-Burke-Ernzerhof) - GGA
MeshCutoff            200.000000    Ry      # Default: 50.0 Ry ~ 0.444 Bohr
                                    #         100.0 Ry ~ 0.314 Bohr
MaxSCFIterations      500           # Default: 50
DM.MixingWeight       0.05          # Default: 0.25
DM.NumberPulay        10            # Default: 0
DM.PulayOnFile        F             # SystemLabel.P1, SystemLabel.P2
DM.Tolerance          1.d-4         # Default: 1.d-4
DM.UseSaveDM          .true.        # because of the bug
SCFMustConverge       .true.
NeglNonOverlapInt     F             # Default: F
#(5) Eigenvalue problem: order-N or diagonalization
SolutionMethod        Diagon        # or Transiesta
ElectronicTemperature 300.0 K       # Default: 300.0 K
#(6) Molecular dynamics and relaxations
#MD.TypeOfRun          CG            # Type of dynamics:
#MD.VariableCell       F
#MD.NumCGsteps         0           # 0 for single-point / 100 for gopt
#MD.MaxCGDispl         0.2 Bohr      # Default: 0.2 Bohr
#MD.MaxForceTol        0.02 eV/Ang   # Default: 0.04 eV/Ang
#MD.MaxStressTol       1.0 GPa       # Default: 1.0 GPa
# Geometry Constraints
#%block GeometryConstraints
#	position from 1 to 44
#%endblock GeometryConstraints
BandLinesScale   pi/a
%block BandLines
 1   0.00000000  0.00000000  0.00000000
50   0.00000000  0.07809418  0.00000000
50   0.04509075  0.07809242  0.00000000
20   0.00000000  0.00000000  0.00000000
%endblock BandLines
************************** End of input data file *****************************

reinit: -----------------------------------------------------------------------
reinit: System Name: GRP_doping
reinit: -----------------------------------------------------------------------
reinit: System Label: GRP_doping                                                  
reinit: -----------------------------------------------------------------------

initatom: Reading input for the pseudopotentials and atomic orbitals ----------
 Species number:            1  Label: N Atomic number:           7
 Species number:            2  Label: C Atomic number:           6
Ground state valence configuration:   2s02  2p03
Reading pseudopotential information in formatted form from N.psf

Valence configuration for pseudopotential generation:
2s( 2.00) rc: 1.48
2p( 3.00) rc: 1.48
3d( 0.00) rc: 1.48
4f( 0.00) rc: 1.48
Ground state valence configuration:   2s02  2p02
Reading pseudopotential information in formatted form from C.psf

Valence configuration for pseudopotential generation:
2s( 2.00) rc: 1.54
2p( 2.00) rc: 1.54
3d( 0.00) rc: 1.54
4f( 0.00) rc: 1.54
For N, standard SIESTA heuristics set lmxkb to 3
 (one more than the basis l, including polarization orbitals).
Use PS.lmax or PS.KBprojectors blocks to override.
For C, standard SIESTA heuristics set lmxkb to 3
 (one more than the basis l, including polarization orbitals).
Use PS.lmax or PS.KBprojectors blocks to override.

<basis_specs>
===============================================================================
N                    Z=   7    Mass=  14.010        Charge= 0.17977+309
Lmxo=1 Lmxkb= 3    BasisType=split      Semic=F
L=0  Nsemic=0  Cnfigmx=2
          n=1  nzeta=2  polorb=0
            splnorm:   0.15000    
               vcte:    0.0000    
               rinn:    0.0000    
                rcs:    0.0000      0.0000    
            lambdas:    1.0000      1.0000    
L=1  Nsemic=0  Cnfigmx=2
          n=1  nzeta=2  polorb=1
            splnorm:   0.15000    
               vcte:    0.0000    
               rinn:    0.0000    
                rcs:    0.0000      0.0000    
            lambdas:    1.0000      1.0000    
-------------------------------------------------------------------------------
L=0  Nkbl=1  erefs: 0.17977+309
L=1  Nkbl=1  erefs: 0.17977+309
L=2  Nkbl=1  erefs: 0.17977+309
L=3  Nkbl=1  erefs: 0.17977+309
===============================================================================
</basis_specs>

atom: Called for N                     (Z =   7)

read_vps: Pseudopotential generation method:
read_vps: ATM3      Troullier-Martins                       
Total valence charge:    5.00000

read_vps: Pseudopotential includes a core correction:
read_vps: Pseudo-core for xc-correction

xc_check: Exchange-correlation functional:
xc_check: GGA Perdew, Burke & Ernzerhof 1996
V l=0 = -2*Zval/r beyond r=  1.4606
V l=1 = -2*Zval/r beyond r=  1.4606
V l=2 = -2*Zval/r beyond r=  1.4606
V l=3 = -2*Zval/r beyond r=  1.4606
All V_l potentials equal beyond r=  1.4606
This should be close to max(r_c) in ps generation
All pots = -2*Zval/r beyond r=  1.4606

VLOCAL1: 99.0% of the norm of Vloc inside     20.347 Ry
VLOCAL1: 99.9% of the norm of Vloc inside     46.372 Ry
atom: Maximum radius for 4*pi*r*r*local-pseudopot. charge    1.76189
atom: Maximum radius for r*vlocal+2*Zval:    1.53550
GHOST: No ghost state for L =  0
GHOST: No ghost state for L =  1
GHOST: No ghost state for L =  2
GHOST: No ghost state for L =  3

KBgen: Kleinman-Bylander projectors: 
   l= 0   rc=  1.634559   el= -1.363963   Ekb=  5.296955   kbcos=  0.335621
   l= 1   rc=  1.614250   el= -0.521451   Ekb= -5.259161   kbcos= -0.433408
   l= 2   rc=  1.718383   el=  0.001991   Ekb= -1.271464   kbcos= -0.007566
   l= 3   rc=  1.761893   el=  0.003093   Ekb= -0.494769   kbcos= -0.001015

KBgen: Total number of  Kleinman-Bylander projectors:   16
atom: -------------------------------------------------------------------------

atom: SANKEY-TYPE ORBITALS:
atom: Selected multiple-zeta basis: split     

SPLIT: Orbitals with angular momentum L= 0

SPLIT: Basis orbitals for state 2s

SPLIT: PAO cut-off radius determined from an
SPLIT: energy shift=  0.007350 Ry

   izeta = 1
                 lambda =    1.000000
                     rc =    4.071465
                 energy =   -1.356470
                kinetic =    1.176977
    potential(screened) =   -2.533447
       potential(ionic) =   -8.057990

   izeta = 2
                 rmatch =    2.905100
              splitnorm =    0.150000
                 energy =   -1.158343
                kinetic =    1.813009
    potential(screened) =   -2.971352
       potential(ionic) =   -8.901931

SPLIT: Orbitals with angular momentum L= 1

SPLIT: Basis orbitals for state 2p

SPLIT: PAO cut-off radius determined from an
SPLIT: energy shift=  0.007350 Ry

   izeta = 1
                 lambda =    1.000000
                     rc =    4.972977
                 energy =   -0.513884
                kinetic =    3.441732
    potential(screened) =   -3.955616
       potential(ionic) =   -9.287901

   izeta = 2
                 rmatch =    3.054066
              splitnorm =    0.150000
                 energy =   -0.318226
                kinetic =    5.125348
    potential(screened) =   -5.443573
       potential(ionic) =  -11.380999

POLgen: Perturbative polarization orbital with L=  2

POLgen: Polarization orbital for state 2p

   izeta = 1
                     rc =    4.972977
                 energy =    1.607437
                kinetic =    3.268125
    potential(screened) =   -1.660688
       potential(ionic) =   -5.973652
atom: Total number of Sankey-type orbitals: 13

atm_pop: Valence configuration (for local Pseudopot. screening):
 2s( 2.00)                                                            
 2p( 3.00)                                                            
Vna: chval, zval:    5.00000   5.00000

Vna:  Cut-off radius for the neutral-atom potential:   4.972977
comcore: Pseudo-core radius Rcore=  1.554824

atom: _________________________________________________________________________

<basis_specs>
===============================================================================
C                    Z=   6    Mass=  12.010        Charge= 0.17977+309
Lmxo=1 Lmxkb= 3    BasisType=split      Semic=F
L=0  Nsemic=0  Cnfigmx=2
          n=1  nzeta=2  polorb=0
            splnorm:   0.15000    
               vcte:    0.0000    
               rinn:    0.0000    
                rcs:    0.0000      0.0000    
            lambdas:    1.0000      1.0000    
L=1  Nsemic=0  Cnfigmx=2
          n=1  nzeta=2  polorb=1
            splnorm:   0.15000    
               vcte:    0.0000    
               rinn:    0.0000    
                rcs:    0.0000      0.0000    
            lambdas:    1.0000      1.0000    
-------------------------------------------------------------------------------
L=0  Nkbl=1  erefs: 0.17977+309
L=1  Nkbl=1  erefs: 0.17977+309
L=2  Nkbl=1  erefs: 0.17977+309
L=3  Nkbl=1  erefs: 0.17977+309
===============================================================================
</basis_specs>

atom: Called for C                     (Z =   6)

read_vps: Pseudopotential generation method:
read_vps: ATM3      Troullier-Martins                       
Total valence charge:    4.00000

read_vps: Pseudopotential includes a core correction:
read_vps: Pseudo-core for xc-correction

xc_check: Exchange-correlation functional:
xc_check: GGA Perdew, Burke & Ernzerhof 1996
V l=0 = -2*Zval/r beyond r=  1.5227
V l=1 = -2*Zval/r beyond r=  1.5227
V l=2 = -2*Zval/r beyond r=  1.5227
V l=3 = -2*Zval/r beyond r=  1.5038
All V_l potentials equal beyond r=  1.5227
This should be close to max(r_c) in ps generation
All pots = -2*Zval/r beyond r=  1.5227

VLOCAL1: 99.0% of the norm of Vloc inside     18.722 Ry
VLOCAL1: 99.9% of the norm of Vloc inside     42.668 Ry
atom: Maximum radius for 4*pi*r*r*local-pseudopot. charge    1.83678
atom: Maximum radius for r*vlocal+2*Zval:    1.58088
GHOST: No ghost state for L =  0
GHOST: No ghost state for L =  1
GHOST: No ghost state for L =  2
GHOST: No ghost state for L =  3

KBgen: Kleinman-Bylander projectors: 
   l= 0   rc=  1.704034   el= -1.009801   Ekb=  5.335044   kbcos=  0.316824
   l= 1   rc=  1.704034   el= -0.388707   Ekb= -3.785862   kbcos= -0.366464
   l= 2   rc=  1.791422   el=  0.001971   Ekb= -0.970471   kbcos= -0.009212
   l= 3   rc=  1.859892   el=  0.003065   Ekb= -0.399525   kbcos= -0.001223

KBgen: Total number of  Kleinman-Bylander projectors:   16
atom: -------------------------------------------------------------------------

atom: SANKEY-TYPE ORBITALS:
atom: Selected multiple-zeta basis: split     

SPLIT: Orbitals with angular momentum L= 0

SPLIT: Basis orbitals for state 2s

SPLIT: PAO cut-off radius determined from an
SPLIT: energy shift=  0.007350 Ry

   izeta = 1
                 lambda =    1.000000
                     rc =    4.632753
                 energy =   -1.002270
                kinetic =    0.855760
    potential(screened) =   -1.858031
       potential(ionic) =   -5.417575

   izeta = 2
                 rmatch =    3.431921
              splitnorm =    0.150000
                 energy =   -0.867111
                kinetic =    1.300804
    potential(screened) =   -2.167915
       potential(ionic) =   -5.962684

SPLIT: Orbitals with angular momentum L= 1

SPLIT: Basis orbitals for state 2p

SPLIT: PAO cut-off radius determined from an
SPLIT: energy shift=  0.007350 Ry

   izeta = 1
                 lambda =    1.000000
                     rc =    5.658549
                 energy =   -0.381140
                kinetic =    2.399701
    potential(screened) =   -2.780841
       potential(ionic) =   -6.206085

   izeta = 2
                 rmatch =    3.653288
              splitnorm =    0.150000
                 energy =   -0.249149
                kinetic =    3.542762
    potential(screened) =   -3.791911
       potential(ionic) =   -7.581078

POLgen: Perturbative polarization orbital with L=  2

POLgen: Polarization orbital for state 2p

   izeta = 1
                     rc =    5.658549
                 energy =    1.109913
                kinetic =    2.304789
    potential(screened) =   -1.194876
       potential(ionic) =   -4.013592
atom: Total number of Sankey-type orbitals: 13

atm_pop: Valence configuration (for local Pseudopot. screening):
 2s( 2.00)                                                            
 2p( 2.00)                                                            
Vna: chval, zval:    4.00000   4.00000

Vna:  Cut-off radius for the neutral-atom potential:   5.658549
comcore: Pseudo-core radius Rcore=  1.791422

atom: _________________________________________________________________________

prinput: Basis input ----------------------------------------------------------

PAO.BasisType split     

%block ChemicalSpeciesLabel
    1    7 N                       # Species index, atomic number, species label
    2    6 C                       # Species index, atomic number, species label
%endblock ChemicalSpeciesLabel

%block PAO.Basis                 # Define Basis set
N                     2                    # Species label, number of l-shells
 n=2   0   2                         # n, l, Nzeta 
   4.071      2.905   
   1.000      1.000   
 n=2   1   2 P   1                   # n, l, Nzeta, Polarization, NzetaPol
   4.973      3.054   
   1.000      1.000   
C                     2                    # Species label, number of l-shells
 n=2   0   2                         # n, l, Nzeta 
   4.633      3.432   
   1.000      1.000   
 n=2   1   2 P   1                   # n, l, Nzeta, Polarization, NzetaPol
   5.659      3.653   
   1.000      1.000   
%endblock PAO.Basis

prinput: ----------------------------------------------------------------------

coor:   Atomic-coordinates input format  =     Fractional

siesta: Atomic coordinates (Bohr) and species
siesta:     -2.35420  38.89134   0.00000  1        1
siesta:     -2.35420  41.57980   0.00000  1        2
siesta:      2.30256  38.89134   0.00000  1        3
siesta:      2.30256  41.57980   0.00000  1        4
siesta:     -4.68258  34.85847   0.00000  1        5
siesta:     -4.68258  37.54693   0.00000  1        6
siesta:     -2.35420  22.75985   0.00000  1        7
siesta:     -9.33934  21.41544   0.00000  1        8
siesta:     -7.01096  22.75985   0.00000  1        9
siesta:     -7.01096  25.44831   0.00000  1       10
siesta:    -11.66772  22.75985   0.00000  1       11
siesta:    -11.66772  25.44831   0.00000  1       12
siesta:     -9.33934  26.79272   0.00000  1       13
siesta:     -9.33934  29.48119   0.00000  1       14
siesta:     -4.68258  26.79272   0.00000  1       15
siesta:     -4.68258  29.48119   0.00000  1       16
siesta:     -2.35420  30.82560   0.00000  1       17
siesta:     -2.35420  33.51406   0.00000  1       18
siesta:     -7.01096  30.82560   0.00000  1       19
siesta:     -7.01096  33.51406   0.00000  1       20
siesta:     -0.02582  34.85847   0.00000  1       21
siesta:     -0.02582  37.54693   0.00000  1       22
siesta:     -0.02582  42.92421   0.00000  1       23
siesta:     -0.02582   2.59549   0.00000  2       24
siesta:     -0.02582   5.28395   0.00000  2       25
siesta:      4.63094  34.85847   0.00000  2       26
siesta:      4.63094  37.54693   0.00000  2       27
siesta:      6.95932  30.82560   0.00000  2       28
siesta:      6.95932  33.51406   0.00000  2       29
siesta:      9.28770  26.79272   0.00000  2       30
siesta:      9.28770  29.48119   0.00000  2       31
siesta:      2.30256   6.62836   0.00000  2       32
siesta:      2.30256   9.31683   0.00000  2       33
siesta:      4.63094  10.66124   0.00000  2       34
siesta:      4.63094  13.34970   0.00000  2       35
siesta:      6.95932  14.69411   0.00000  2       36
siesta:      6.95932  17.38257   0.00000  2       37
siesta:      9.28770  18.72698   0.00000  2       38
siesta:      9.28770  21.41544   0.00000  2       39
siesta:     11.61608  22.75985   0.00000  2       40
siesta:     11.61608  25.44831   0.00000  2       41
siesta:     -2.35420   6.62836   0.00000  2       42
siesta:     -2.35420   9.31683   0.00000  2       43
siesta:     -0.02582  10.66124   0.00000  2       44
siesta:     -0.02582  13.34970   0.00000  2       45
siesta:      2.30256  14.69411   0.00000  2       46
siesta:      2.30256  17.38257   0.00000  2       47
siesta:      4.63094  18.72698   0.00000  2       48
siesta:      4.63094  21.41544   0.00000  2       49
siesta:      6.95932  22.75985   0.00000  2       50
siesta:      6.95932  25.44831   0.00000  2       51
siesta:     -4.68258  10.66124   0.00000  2       52
siesta:     -4.68258  13.34970   0.00000  2       53
siesta:     -2.35420  14.69411   0.00000  2       54
siesta:     -2.35420  17.38257   0.00000  2       55
siesta:     -0.02582  18.72698   0.00000  2       56
siesta:     -0.02582  21.41544   0.00000  2       57
siesta:      2.30256  22.75985   0.00000  2       58
siesta:      2.30256  25.44831   0.00000  2       59
siesta:     -7.01096  14.69411   0.00000  2       60
siesta:     -7.01096  17.38257   0.00000  2       61
siesta:     -4.68258  18.72698   0.00000  2       62
siesta:     -4.68258  21.41544   0.00000  2       63
siesta:     -2.35420  25.44831   0.00000  2       64
siesta:     -9.33934  18.72698   0.00000  2       65
siesta:      4.63094  26.79272   0.00000  2       66
siesta:      4.63094  29.48119   0.00000  2       67
siesta:     -0.02582  26.79272   0.00000  2       68
siesta:     -0.02582  29.48119   0.00000  2       69
siesta:      2.30256  30.82560   0.00000  2       70
siesta:      2.30256  33.51406   0.00000  2       71
siesta:     -0.02582  45.61267   0.00000  2       72

siesta: System type = slab      

initatomlists: Number of atoms, orbitals, and projectors:     72   936  1152

siesta: ******************** Simulation parameters ****************************
siesta:
siesta: The following are some of the parameters of the simulation.
siesta: A complete list of the parameters used, including default values,
siesta: can be found in file out.fdf
siesta:
redata: Non-Collinear-spin run           =     F
redata: SpinPolarized (Up/Down) run      =     F
redata: Number of spin components        =     1
redata: Long output                      =     F
redata: Number of Atomic Species         =        2
redata: Charge density info will appear in .RHO file
redata: Write Mulliken Pop.              =     NO
redata: Mesh Cutoff                      =   200.0000  Ry
redata: Net charge of the system         =     0.0000 |e|
redata: Max. number of SCF Iter          =      500
redata: SCF convergence failure will abort job
redata: Performing Pulay mixing using    =    10 iterations
redata: Mix DM in first SCF step ?       =     F
redata: Write Pulay info on disk?        =     F
redata: Discard 1st Pulay DM after  kick =     F
redata: New DM Mixing Weight             =     0.0500
redata: New DM Occupancy tolerance       = 0.000000000001
redata: No kicks to SCF
redata: DM Mixing Weight for Kicks       =     0.5000
redata: DM Tolerance for SCF             =     0.000100
redata: Require Energy convergence for SCF =     F
redata: DM Energy tolerance for SCF      =     0.000100 eV
redata: Require Harris convergence for SCF =     F
redata: DM Harris energy tolerance for SCF =     0.000100 eV
redata: Using Saved Data (generic)   =     F
redata: Use continuation files for DM    =     T
redata: Neglect nonoverlap interactions  =     F
redata: Method of Calculation            =     Diagonalization
redata: Divide and Conquer               =     T
redata: Electronic Temperature           =     0.0019  Ry
redata: Fix the spin of the system       =     F
redata: Dynamics option                  =     Verlet MD run
redata: Initial MD time step             =        1
redata:   Final MD time step             =        1
redata: Length of MD time step           =     1.0000  fs
redata: Initial Temperature of MD run    =     0.0000  K
redata: Perform a MD quench              =     F
redata: ***********************************************************************
Total number of electrons:   311.000000
Total ionic charge:   311.000000

* ProcessorY, Blocksize:    2  24

k-point displ. along   1 input, could be:     0.50    0.00
k-point displ. along   2 input, could be:     0.50    0.00
 Kpoints in:          231 . Kpoints trimmed:          231

siesta: k-grid: Number of k-points =   231
siesta: k-grid: Cutoff (effective) =     5.000 Ang
siesta: k-grid: Supercell and displacements
siesta: k-grid:   21   0   0      0.500
siesta: k-grid:    0  21   0      0.500
siesta: k-grid:    0   0   1      0.000
Naive supercell factors:     2    2    2

superc: Internal auxiliary supercell:     2 x     2 x     2  =       8
superc: Number of atoms, orbitals, and projectors:    576   7488   9216

* Maximum dynamic memory allocated =     4 MB

siesta:                 ==============================
                            Begin MD step =      1
                        ==============================

superc: Internal auxiliary supercell:     2 x     2 x     2  =       8
superc: Number of atoms, orbitals, and projectors:    576   7488   9216

outcell: Unit cell vectors (Ang):
       12.804619    7.392750    0.000000
        0.000000   14.785500    0.000000
        0.000000    0.000000   10.000000

outcell: Cell vector modules (Ang)   :   14.785500   14.785500   10.000000
outcell: Cell angles (23,13,12) (deg):     90.0000     90.0000     60.0000
outcell: Cell volume (Ang**3)        :   1893.2269
New_DM. Step:     1
Initializing Density Matrix...

InitMesh: MESH =   120 x   120 x    90 =     1296000
InitMesh: Mesh cutoff (required, used) =   200.000   223.865 Ry

* Maximum dynamic memory allocated =   177 MB

stepf: Fermi-Dirac step function

siesta: Program's energy decomposition (eV):
siesta: Ebs     =     -6349.666956
siesta: Eions   =     22100.188487
siesta: Ena     =      4961.020012
siesta: Ekin    =      8308.399223
siesta: Enl     =       -44.953282
siesta: DEna    =        -0.000015
siesta: DUscf   =         0.000000
siesta: DUext   =         0.000000
siesta: Exc     =     -4752.802447
siesta: eta*DQ  =         0.000000
siesta: Emadel  =         0.000000
siesta: Emeta   =         0.000000
siesta: Emolmec =         0.000000
siesta: Ekinion =         0.000000
siesta: Eharris =    -13235.830236
siesta: Etot    =    -13628.524996
siesta: FreeEng =    -13628.524996

siesta: iscf   Eharris(eV)      E_KS(eV)   FreeEng(eV)   dDmax  Ef(eV)
siesta:    1   -13235.8302   -13628.5250   -13628.5250  5.9276 -6.6884
timer: Routine,Calls,Time,% = IterSCF        1    4219.843  99.73
elaps: Routine,Calls,Wall,% = IterSCF        1     528.101  99.73
siesta:    2   -16659.2787   -12705.9066   -12705.9307 19.0029 -2.3920
siesta:    3   -13123.4116   -13435.4905   -13435.5293  2.6853 -5.1652
siesta:    4   -13106.6780   -13256.6293   -13256.6861  0.9367 -4.0488
siesta:    5   -13082.6165   -13207.2813   -13207.3382  1.1501 -3.8720
siesta:    6   -13079.4840   -13185.2474   -13185.2905  0.8822 -3.8669
siesta:    7   -13076.8592   -13165.9651   -13166.0314  0.8216 -4.0374
siesta:    8   -13076.3208   -13150.4715   -13150.5486  0.7620 -4.1193
siesta:    9   -13075.8054   -13133.4595   -13133.5402  0.6811 -4.0853
siesta:   10   -13076.0624   -13115.4973   -13115.5746  0.5596 -4.1081
siesta:   11   -13074.4948   -13104.4822   -13104.5446  0.4953 -3.9263
siesta:   12   -13075.2892   -13076.1078   -13076.1641  0.6049 -3.7519
siesta:   13   -13075.0232   -13066.5077   -13066.5554  0.5973 -3.7405
siesta:   14   -13074.6258   -13064.6548   -13064.6958  0.4961 -3.8207
siesta:   15   -13074.0959   -13061.1315   -13061.1924  0.2739 -3.8281
siesta:   16   -13073.8937   -13059.9255   -13059.9991  0.2560 -3.8626
siesta:   17   -13073.6706   -13061.9581   -13062.0385  0.1746 -3.9369
siesta:   18   -13073.5808   -13062.0728   -13062.1523  0.1502 -3.9331
siesta:   19   -13073.5692   -13064.0694   -13064.1533  0.1719 -3.9286
siesta:   20   -13073.5433   -13066.6379   -13066.7217  0.1104 -3.9418
siesta:   21   -13073.5465   -13067.9630   -13068.0495  0.1399 -3.9475
siesta:   22   -13073.5200   -13071.5586   -13071.6411  0.1202 -3.9792
siesta:   23   -13073.5119   -13072.4177   -13072.5101  0.0436 -3.9772
siesta:   24   -13073.5178   -13074.3841   -13074.4750  0.0981 -3.9831
siesta:   25   -13073.5082   -13073.7559   -13073.8479  0.0503 -3.9738
siesta:   26   -13073.5065   -13074.6652   -13074.7562  0.0239 -3.9741
siesta:   27   -13073.5053   -13073.9282   -13074.0203  0.0292 -3.9635
siesta:   28   -13073.5048   -13074.1645   -13074.2568  0.0158 -3.9595
siesta:   29   -13073.5043   -13073.9872   -13074.0786  0.0113 -3.9606
siesta:   30   -13073.5039   -13073.6282   -13073.7195  0.0091 -3.9614
siesta:   31   -13073.5041   -13073.7163   -13073.8076  0.0023 -3.9609
siesta:   32   -13073.5040   -13073.6902   -13073.7813  0.0021 -3.9609
siesta:   33   -13073.5040   -13073.6863   -13073.7774  0.0041 -3.9611
siesta:   34   -13073.5039   -13073.6064   -13073.6974  0.0033 -3.9607
siesta:   35   -13073.5040   -13073.5888   -13073.6800  0.0015 -3.9609
siesta:   36   -13073.5039   -13073.5441   -13073.6351  0.0005 -3.9609
siesta:   37   -13073.5040   -13073.5420   -13073.6330  0.0007 -3.9611
siesta:   38   -13073.5039   -13073.5151   -13073.6062  0.0004 -3.9613
siesta:   39   -13073.5039   -13073.5064   -13073.5975  0.0005 -3.9613
siesta:   40   -13073.5039   -13073.4973   -13073.5884  0.0002 -3.9613
siesta:   41   -13073.5039   -13073.5057   -13073.5968  0.0001 -3.9613
siesta:   42   -13073.5039   -13073.5058   -13073.5969  0.0001 -3.9613

siesta: E_KS(eV) =           -13073.5037

siesta: E_KS - E_eggbox =    -13073.5037

siesta: Atomic forces (eV/Ang):
----------------------------------------
   Tot   -0.311896   -0.020605    0.000000
----------------------------------------
   Max  683.276348
   Res  180.566784    sqrt( Sum f_i^2 / 3N )
----------------------------------------
   Max  683.276348    constrained

Stress-tensor-Voigt (kbar):     -621.47    -3286.41       -0.03       16.36        0.00        0.00
(Free)E + p*V (eV/cell)   -11534.3417
Target enthalpy (eV/cell)   -13073.5948

siesta: Stress tensor (static) (eV/Ang**3):
        -0.387885    0.010211    0.000000
         0.010211   -2.051192    0.000000
         0.000000    0.000000   -0.000018

siesta: Pressure (static):       1302.63416763  kBar

siesta: Stress tensor (total) (eV/Ang**3):
        -0.387885    0.010211    0.000000
         0.010211   -2.051192    0.000000
         0.000000    0.000000   -0.000018

siesta: Pressure (total):       1302.63416763  kBar

siesta: Temp_ion =       0.000 K

* Maximum dynamic memory allocated =   194 MB
Computing bands...

siesta: Program's energy decomposition (eV):
siesta: Ebs     =     -5084.632347
siesta: Eions   =     22100.188487
siesta: Ena     =      4961.020012
siesta: Ekin    =     11477.384408
siesta: Enl     =     -1768.489219
siesta: DEna    =      -822.221268
siesta: DUscf   =       113.263085
siesta: DUext   =         0.000000
siesta: Exc     =     -4934.272260
siesta: eta*DQ  =         0.000000
siesta: Emadel  =         0.000000
siesta: Emeta   =         0.000000
siesta: Emolmec =         0.000000
siesta: Ekinion =         0.000000
siesta: Eharris =    -13073.503943
siesta: Etot    =    -13073.503730
siesta: FreeEng =    -13073.594806

siesta: Final energy (eV):
siesta:  Band Struct. =   -5084.632347
siesta:       Kinetic =   11477.384408
siesta:       Hartree =   37129.784831
siesta:    Ext. field =       0.000000
siesta:   Exch.-corr. =   -4934.272260
siesta:  Ion-electron =  -85204.525268
siesta:       Ion-ion =   28458.124559
siesta:       Ekinion =       0.000000
siesta:         Total =  -13073.503730

siesta: Atomic forces (eV/Ang):
siesta:      1    0.870842  108.257903    0.000000
siesta:      2  -24.570594 -656.496432    0.000000
siesta:      3    3.117096  105.738087    0.000000
siesta:      4   21.692705 -655.308698    0.000000
siesta:      5  -30.371644    8.025898    0.000000
siesta:      6  -26.705600 -657.456919    0.000000
siesta:      7   -2.582113    0.441719    0.000000
siesta:      8   -0.870208   -2.553686    0.000000
siesta:      9    1.524277    0.530980    0.000000
siesta:     10   -0.430913    0.318086    0.000000
siesta:     11    1.296701    2.932947    0.000000
siesta:     12    1.419142   -2.087508    0.000000
siesta:     13    0.938092   -0.157764    0.000000
siesta:     14    0.352356    0.591518    0.000000
siesta:     15    0.293948   -1.399994    0.000000
siesta:     16   -2.914002   -3.510530    0.000000
siesta:     17  -27.038532    7.397313    0.000000
siesta:     18    2.067813 -677.939679    0.000000
siesta:     19   -1.270473   -0.902567    0.000000
siesta:     20   -1.344815   -3.560868    0.000000
siesta:     21    3.095832  107.084650    0.000000
siesta:     22   -2.262362 -665.479284    0.000000
siesta:     23   -1.320521  127.025720    0.000000
siesta:     24  -13.225111  548.915151    0.000000
siesta:     25   -1.490618 -121.626177    0.000000
siesta:     26   27.440423    3.751884    0.000000
siesta:     27   33.122194 -554.654244    0.000000
siesta:     28    2.154260    0.100548    0.000000
siesta:     29   -3.330590    1.797246    0.000000
siesta:     30    2.118646    2.251469    0.000000
siesta:     31   -1.671813   -0.000821    0.000000
siesta:     32   -3.289698  547.355641    0.000000
siesta:     33   -0.036594 -120.785779    0.000000
siesta:     34   18.764797  550.904748    0.000000
siesta:     35   26.303069   -3.461464    0.000000
siesta:     36   -3.324550   -1.859176    0.000000
siesta:     37    1.628530    0.395871    0.000000
siesta:     38   -1.588223    0.073742    0.000000
siesta:     39    1.818439   -2.428606    0.000000
siesta:     40    0.119524    7.709038    0.000000
siesta:     41   -0.309584   -7.621642    0.000000
siesta:     42  -24.243605  655.048538    0.000000
siesta:     43    2.032202 -115.640082    0.000000
siesta:     44   -3.801805  673.983095    0.000000
siesta:     45   -0.150853 -116.117312    0.000000
siesta:     46    5.622557  680.796710    0.000000
siesta:     47   24.863050   -3.028237    0.000000
siesta:     48   -1.283362    2.981784    0.000000
siesta:     49    0.725360   -0.525397    0.000000
siesta:     50   -0.246502    0.724082    0.000000
siesta:     51    0.024938   -0.676998    0.000000
siesta:     52  -21.103374  658.864767    0.000000
siesta:     53  -26.143764   -4.044160    0.000000
siesta:     54   -2.058035  683.276348    0.000000
siesta:     55  -24.315242   -2.992153    0.000000
siesta:     56   -0.445342  569.092011    0.000000
siesta:     57    0.747325    1.666149    0.000000
siesta:     58   -1.183713   -0.304775    0.000000
siesta:     59    0.339207   -0.136696    0.000000
siesta:     60    1.973037   -0.284367    0.000000
siesta:     61   -1.148722   -0.113350    0.000000
siesta:     62    1.999044    3.515823    0.000000
siesta:     63    0.028610    0.698930    0.000000
siesta:     64   -0.092594    0.792298    0.000000
siesta:     65   -0.885720    2.492588    0.000000
siesta:     66    0.033809    0.182769    0.000000
siesta:     67   -1.310088   -2.391785    0.000000
siesta:     68   -0.984458   -1.126749    0.000000
siesta:     69   19.435647 -574.901408    0.000000
siesta:     70   24.028761    4.507088    0.000000
siesta:     71   27.623253 -562.018812    0.000000
siesta:     72   -0.581644 -546.649626    0.000000
siesta: ----------------------------------------
siesta:    Tot   -0.311896   -0.020605    0.000000

siesta: Stress tensor (static) (eV/Ang**3):
siesta:    -0.387885    0.010211    0.000000
siesta:     0.010211   -2.051192    0.000000
siesta:     0.000000    0.000000   -0.000018

siesta: Cell volume =       1893.226884 Ang**3

siesta: Pressure (static):
siesta:                Solid            Molecule  Units
siesta:           0.00885495          0.14417060  Ry/Bohr**3
siesta:           0.81303151         13.23725412  eV/Ang**3
siesta:        1302.63416763      21208.64848426  kBar
(Free)E+ p_basis*V_orbitals  =      -13046.145351
(Free)Eharris+ p_basis*V_orbitals  =      -13046.143475

siesta: Electric dipole (a.u.)  =    0.000000    0.000000    0.000000
siesta: Electric dipole (Debye) =    0.000000    0.000000    0.000000

* Maximum dynamic memory allocated : Node    0 =   194 MB
* Maximum dynamic memory allocated : Node    1 =    72 MB
* Maximum dynamic memory allocated : Node    2 =    72 MB
* Maximum dynamic memory allocated : Node    3 =   184 MB
* Maximum dynamic memory allocated : Node    4 =   189 MB
* Maximum dynamic memory allocated : Node    5 =    70 MB
* Maximum dynamic memory allocated : Node    6 =    73 MB
* Maximum dynamic memory allocated : Node    7 =   175 MB

* Maximum memory occured during matrixMtoO                    

timer: CPU execution times:
timer:  Routine       Calls   Time/call    Tot.time        %
timer:  siesta            1  173801.406  173801.406   100.00
timer:  Setup             1       3.049       3.049     0.00
timer:  bands             3     272.664     817.993     0.47
timer:  writewave         1       0.018       0.018     0.00
timer:  KSV_init          1       0.001       0.001     0.00
timer:  IterMD            1  172974.512  172974.512    99.52
timer:  hsparse           1       0.234       0.234     0.00
timer:  overlap           1       7.694       7.694     0.00
timer:  IterSCF          42    4114.690  172816.998    99.43
timer:  kinefsm           2       3.951       7.901     0.00
timer:  nlefsm            2      18.486      36.972     0.02
timer:  DHSCF            43      83.894    3607.422     2.08
timer:  DHSCF1            1       0.770       0.770     0.00
timer:  DHSCF2            1      32.233      32.233     0.02
timer:  REORD           346       0.011       3.876     0.00
timer:  POISON           44       2.537     111.629     0.06
timer:  DHSCF3           43      82.383    3542.480     2.04
timer:  rhoofd           43      16.794     722.134     0.42
timer:  cellXC           43       3.516     151.180     0.09
timer:  vmat             43      38.030    1635.274     0.94
timer:  MolMec            2       0.000       0.000     0.00
timer:  diagon           42    4029.466  169237.564    97.37
timer:  c-eigval       9823       6.778   66581.111    38.31
timer:  c-buildHS      9823       0.134    1312.364     0.76
timer:  cdiag         19525       6.957  135830.765    78.15
timer:  cdiag1        19525       0.435    8493.039     4.89
timer:  cdiag2        19525       1.923   37538.663    21.60
timer:  cdiag3        19525       3.994   77980.368    44.87
timer:  cdiag4        19525       0.212    4129.880     2.38
timer:  c-eigvec       9702       7.341   71219.694    40.98
timer:  c-buildD       9702       3.319   32197.479    18.53
timer:  DHSCF4            1      29.350      29.350     0.02
timer:  dfscf             1      27.586      27.586     0.02
timer:  overfsm           1       0.396       0.396     0.00
timer:  optical           1       5.111       5.111     0.00
  

elaps: ELAPSED times:
elaps:  Routine       Calls   Time/call    Tot.time        %
elaps:  siesta            1   21749.175   21749.175   100.00
elaps:  Setup             1       0.378       0.378     0.00
elaps:  bands             3      34.135     102.405     0.47
elaps:  writewave         1       0.002       0.002     0.00
elaps:  KSV_init          1       0.000       0.000     0.00
elaps:  IterMD            1   21645.716   21645.716    99.52
elaps:  hsparse           1       0.029       0.029     0.00
elaps:  overlap           1       0.967       0.967     0.00
elaps:  IterSCF          42     514.905   21626.010    99.43
elaps:  kinefsm           2       0.497       0.994     0.00
elaps:  nlefsm            2       2.335       4.670     0.02
elaps:  DHSCF            43      10.579     454.916     2.09
elaps:  DHSCF1            1       0.098       0.098     0.00
elaps:  DHSCF2            1       4.031       4.031     0.02
elaps:  REORD           346       0.001       0.511     0.00
elaps:  POISON           44       0.317      13.958     0.06
elaps:  DHSCF3           43      10.305     443.099     2.04
elaps:  rhoofd           43       4.734     203.566     0.94
elaps:  cellXC           43       0.439      18.894     0.09
elaps:  vmat             43       4.755     204.471     0.94
elaps:  MolMec            2       0.000       0.000     0.00
elaps:  diagon           42     504.269   21179.296    97.38
elaps:  c-eigval       9823       0.848    8330.741    38.30
elaps:  c-buildHS      9823       0.018     176.154     0.81
elaps:  cdiag         19525       0.857   16731.756    76.93
elaps:  cdiag1        19525       0.054    1052.600     4.84
elaps:  cdiag2        19525       0.241    4697.486    21.60
elaps:  cdiag3        19525       0.500    9770.416    44.92
elaps:  cdiag4        19525       0.027     519.024     2.39
elaps:  c-eigvec       9702       0.895    8679.073    39.91
elaps:  c-buildD       9702       0.439    4263.499    19.60
elaps:  DHSCF4            1       7.329       7.329     0.03
elaps:  dfscf             1       6.961       6.961     0.03
elaps:  overfsm           1       0.051       0.051     0.00
elaps:  optical           1       0.000       0.000     0.00
  
>> End of run:  26-APR-2016   2:07:48
