Siesta Version:                                        siesta-3.2-pl-3
Architecture  : x86_64-unknown-linux-gnu--unknown
Compiler flags: mpiifort -g -O2 -fPIC -xSSE4.1 -fp-model source -shared-intel 
PARALLEL version

* Running on    8 nodes in parallel
>> Start of run:  21-APR-2016  23:16:25

                           ***********************       
                           *  WELCOME TO SIESTA  *       
                           ***********************       

reinit: Reading from standard input
************************** Dump of input data file ****************************
#(1) General system descriptors
SystemName            GRP_doping    # Descriptive name of the system
SystemLabel           GRP_doping    # Short name for naming files
%include STRUCT.fdf
%include KPT.fdf
%include BASIS.fdf
#%include TS.fdf # for transiesta calculation
#(4) DFT, Grid, SCF
XC.functional         GGA           # LDA or GGA (default = LDA)
XC.authors            PBE           # CA (Ceperley-Aldr) = PZ
                                    #    (Perdew-Zunger) - LDA - Default
                                    # PW92 (Perdew-Wang-92) - LDA
                                    # PBE (Perdew-Burke-Ernzerhof) - GGA
MeshCutoff            200.000000    Ry      # Default: 50.0 Ry ~ 0.444 Bohr
                                    #         100.0 Ry ~ 0.314 Bohr
MaxSCFIterations      500           # Default: 50
DM.MixingWeight       0.05          # Default: 0.25
DM.NumberPulay        10            # Default: 0
DM.PulayOnFile        F             # SystemLabel.P1, SystemLabel.P2
DM.Tolerance          1.d-4         # Default: 1.d-4
DM.UseSaveDM          .true.        # because of the bug
SCFMustConverge       .true.
NeglNonOverlapInt     F             # Default: F
#(5) Eigenvalue problem: order-N or diagonalization
SolutionMethod        Diagon        # or Transiesta
ElectronicTemperature 300.0 K       # Default: 300.0 K
#(6) Molecular dynamics and relaxations
#MD.TypeOfRun          CG            # Type of dynamics:
#MD.VariableCell       F
#MD.NumCGsteps         0           # 0 for single-point / 100 for gopt
#MD.MaxCGDispl         0.2 Bohr      # Default: 0.2 Bohr
#MD.MaxForceTol        0.02 eV/Ang   # Default: 0.04 eV/Ang
#MD.MaxStressTol       1.0 GPa       # Default: 1.0 GPa
# Geometry Constraints
#%block GeometryConstraints
#	position from 1 to 44
#%endblock GeometryConstraints
BandLinesScale   pi/a
%block BandLines
 1   0.00000000  0.00000000  0.00000000
50   0.00000000  0.07809418  0.00000000
50   0.04509075  0.07809242  0.00000000
20   0.00000000  0.00000000  0.00000000
%endblock BandLines
************************** End of input data file *****************************

reinit: -----------------------------------------------------------------------
reinit: System Name: GRP_doping
reinit: -----------------------------------------------------------------------
reinit: System Label: GRP_doping                                                  
reinit: -----------------------------------------------------------------------

initatom: Reading input for the pseudopotentials and atomic orbitals ----------
 Species number:            1  Label: N Atomic number:           7
 Species number:            2  Label: C Atomic number:           6
Ground state valence configuration:   2s02  2p03
Reading pseudopotential information in formatted form from N.psf

Valence configuration for pseudopotential generation:
2s( 2.00) rc: 1.48
2p( 3.00) rc: 1.48
3d( 0.00) rc: 1.48
4f( 0.00) rc: 1.48
Ground state valence configuration:   2s02  2p02
Reading pseudopotential information in formatted form from C.psf

Valence configuration for pseudopotential generation:
2s( 2.00) rc: 1.54
2p( 2.00) rc: 1.54
3d( 0.00) rc: 1.54
4f( 0.00) rc: 1.54
For N, standard SIESTA heuristics set lmxkb to 3
 (one more than the basis l, including polarization orbitals).
Use PS.lmax or PS.KBprojectors blocks to override.
For C, standard SIESTA heuristics set lmxkb to 3
 (one more than the basis l, including polarization orbitals).
Use PS.lmax or PS.KBprojectors blocks to override.

<basis_specs>
===============================================================================
N                    Z=   7    Mass=  14.010        Charge= 0.17977+309
Lmxo=1 Lmxkb= 3    BasisType=split      Semic=F
L=0  Nsemic=0  Cnfigmx=2
          n=1  nzeta=2  polorb=0
            splnorm:   0.15000    
               vcte:    0.0000    
               rinn:    0.0000    
                rcs:    0.0000      0.0000    
            lambdas:    1.0000      1.0000    
L=1  Nsemic=0  Cnfigmx=2
          n=1  nzeta=2  polorb=1
            splnorm:   0.15000    
               vcte:    0.0000    
               rinn:    0.0000    
                rcs:    0.0000      0.0000    
            lambdas:    1.0000      1.0000    
-------------------------------------------------------------------------------
L=0  Nkbl=1  erefs: 0.17977+309
L=1  Nkbl=1  erefs: 0.17977+309
L=2  Nkbl=1  erefs: 0.17977+309
L=3  Nkbl=1  erefs: 0.17977+309
===============================================================================
</basis_specs>

atom: Called for N                     (Z =   7)

read_vps: Pseudopotential generation method:
read_vps: ATM3      Troullier-Martins                       
Total valence charge:    5.00000

read_vps: Pseudopotential includes a core correction:
read_vps: Pseudo-core for xc-correction

xc_check: Exchange-correlation functional:
xc_check: GGA Perdew, Burke & Ernzerhof 1996
V l=0 = -2*Zval/r beyond r=  1.4606
V l=1 = -2*Zval/r beyond r=  1.4606
V l=2 = -2*Zval/r beyond r=  1.4606
V l=3 = -2*Zval/r beyond r=  1.4606
All V_l potentials equal beyond r=  1.4606
This should be close to max(r_c) in ps generation
All pots = -2*Zval/r beyond r=  1.4606

VLOCAL1: 99.0% of the norm of Vloc inside     20.347 Ry
VLOCAL1: 99.9% of the norm of Vloc inside     46.372 Ry
atom: Maximum radius for 4*pi*r*r*local-pseudopot. charge    1.76189
atom: Maximum radius for r*vlocal+2*Zval:    1.53550
GHOST: No ghost state for L =  0
GHOST: No ghost state for L =  1
GHOST: No ghost state for L =  2
GHOST: No ghost state for L =  3

KBgen: Kleinman-Bylander projectors: 
   l= 0   rc=  1.634559   el= -1.363963   Ekb=  5.296955   kbcos=  0.335621
   l= 1   rc=  1.614250   el= -0.521451   Ekb= -5.259161   kbcos= -0.433408
   l= 2   rc=  1.718383   el=  0.001991   Ekb= -1.271464   kbcos= -0.007566
   l= 3   rc=  1.761893   el=  0.003093   Ekb= -0.494769   kbcos= -0.001015

KBgen: Total number of  Kleinman-Bylander projectors:   16
atom: -------------------------------------------------------------------------

atom: SANKEY-TYPE ORBITALS:
atom: Selected multiple-zeta basis: split     

SPLIT: Orbitals with angular momentum L= 0

SPLIT: Basis orbitals for state 2s

SPLIT: PAO cut-off radius determined from an
SPLIT: energy shift=  0.007350 Ry

   izeta = 1
                 lambda =    1.000000
                     rc =    4.071465
                 energy =   -1.356470
                kinetic =    1.176977
    potential(screened) =   -2.533447
       potential(ionic) =   -8.057990

   izeta = 2
                 rmatch =    2.905100
              splitnorm =    0.150000
                 energy =   -1.158343
                kinetic =    1.813009
    potential(screened) =   -2.971352
       potential(ionic) =   -8.901931

SPLIT: Orbitals with angular momentum L= 1

SPLIT: Basis orbitals for state 2p

SPLIT: PAO cut-off radius determined from an
SPLIT: energy shift=  0.007350 Ry

   izeta = 1
                 lambda =    1.000000
                     rc =    4.972977
                 energy =   -0.513884
                kinetic =    3.441732
    potential(screened) =   -3.955616
       potential(ionic) =   -9.287901

   izeta = 2
                 rmatch =    3.054066
              splitnorm =    0.150000
                 energy =   -0.318226
                kinetic =    5.125348
    potential(screened) =   -5.443573
       potential(ionic) =  -11.380999

POLgen: Perturbative polarization orbital with L=  2

POLgen: Polarization orbital for state 2p

   izeta = 1
                     rc =    4.972977
                 energy =    1.607437
                kinetic =    3.268125
    potential(screened) =   -1.660688
       potential(ionic) =   -5.973652
atom: Total number of Sankey-type orbitals: 13

atm_pop: Valence configuration (for local Pseudopot. screening):
 2s( 2.00)                                                            
 2p( 3.00)                                                            
Vna: chval, zval:    5.00000   5.00000

Vna:  Cut-off radius for the neutral-atom potential:   4.972977
comcore: Pseudo-core radius Rcore=  1.554824

atom: _________________________________________________________________________

<basis_specs>
===============================================================================
C                    Z=   6    Mass=  12.010        Charge= 0.17977+309
Lmxo=1 Lmxkb= 3    BasisType=split      Semic=F
L=0  Nsemic=0  Cnfigmx=2
          n=1  nzeta=2  polorb=0
            splnorm:   0.15000    
               vcte:    0.0000    
               rinn:    0.0000    
                rcs:    0.0000      0.0000    
            lambdas:    1.0000      1.0000    
L=1  Nsemic=0  Cnfigmx=2
          n=1  nzeta=2  polorb=1
            splnorm:   0.15000    
               vcte:    0.0000    
               rinn:    0.0000    
                rcs:    0.0000      0.0000    
            lambdas:    1.0000      1.0000    
-------------------------------------------------------------------------------
L=0  Nkbl=1  erefs: 0.17977+309
L=1  Nkbl=1  erefs: 0.17977+309
L=2  Nkbl=1  erefs: 0.17977+309
L=3  Nkbl=1  erefs: 0.17977+309
===============================================================================
</basis_specs>

atom: Called for C                     (Z =   6)

read_vps: Pseudopotential generation method:
read_vps: ATM3      Troullier-Martins                       
Total valence charge:    4.00000

read_vps: Pseudopotential includes a core correction:
read_vps: Pseudo-core for xc-correction

xc_check: Exchange-correlation functional:
xc_check: GGA Perdew, Burke & Ernzerhof 1996
V l=0 = -2*Zval/r beyond r=  1.5227
V l=1 = -2*Zval/r beyond r=  1.5227
V l=2 = -2*Zval/r beyond r=  1.5227
V l=3 = -2*Zval/r beyond r=  1.5038
All V_l potentials equal beyond r=  1.5227
This should be close to max(r_c) in ps generation
All pots = -2*Zval/r beyond r=  1.5227

VLOCAL1: 99.0% of the norm of Vloc inside     18.722 Ry
VLOCAL1: 99.9% of the norm of Vloc inside     42.668 Ry
atom: Maximum radius for 4*pi*r*r*local-pseudopot. charge    1.83678
atom: Maximum radius for r*vlocal+2*Zval:    1.58088
GHOST: No ghost state for L =  0
GHOST: No ghost state for L =  1
GHOST: No ghost state for L =  2
GHOST: No ghost state for L =  3

KBgen: Kleinman-Bylander projectors: 
   l= 0   rc=  1.704034   el= -1.009801   Ekb=  5.335044   kbcos=  0.316824
   l= 1   rc=  1.704034   el= -0.388707   Ekb= -3.785862   kbcos= -0.366464
   l= 2   rc=  1.791422   el=  0.001971   Ekb= -0.970471   kbcos= -0.009212
   l= 3   rc=  1.859892   el=  0.003065   Ekb= -0.399525   kbcos= -0.001223

KBgen: Total number of  Kleinman-Bylander projectors:   16
atom: -------------------------------------------------------------------------

atom: SANKEY-TYPE ORBITALS:
atom: Selected multiple-zeta basis: split     

SPLIT: Orbitals with angular momentum L= 0

SPLIT: Basis orbitals for state 2s

SPLIT: PAO cut-off radius determined from an
SPLIT: energy shift=  0.007350 Ry

   izeta = 1
                 lambda =    1.000000
                     rc =    4.632753
                 energy =   -1.002270
                kinetic =    0.855760
    potential(screened) =   -1.858031
       potential(ionic) =   -5.417575

   izeta = 2
                 rmatch =    3.431921
              splitnorm =    0.150000
                 energy =   -0.867111
                kinetic =    1.300804
    potential(screened) =   -2.167915
       potential(ionic) =   -5.962684

SPLIT: Orbitals with angular momentum L= 1

SPLIT: Basis orbitals for state 2p

SPLIT: PAO cut-off radius determined from an
SPLIT: energy shift=  0.007350 Ry

   izeta = 1
                 lambda =    1.000000
                     rc =    5.658549
                 energy =   -0.381140
                kinetic =    2.399701
    potential(screened) =   -2.780841
       potential(ionic) =   -6.206085

   izeta = 2
                 rmatch =    3.653288
              splitnorm =    0.150000
                 energy =   -0.249149
                kinetic =    3.542762
    potential(screened) =   -3.791911
       potential(ionic) =   -7.581078

POLgen: Perturbative polarization orbital with L=  2

POLgen: Polarization orbital for state 2p

   izeta = 1
                     rc =    5.658549
                 energy =    1.109913
                kinetic =    2.304789
    potential(screened) =   -1.194876
       potential(ionic) =   -4.013592
atom: Total number of Sankey-type orbitals: 13

atm_pop: Valence configuration (for local Pseudopot. screening):
 2s( 2.00)                                                            
 2p( 2.00)                                                            
Vna: chval, zval:    4.00000   4.00000

Vna:  Cut-off radius for the neutral-atom potential:   5.658549
comcore: Pseudo-core radius Rcore=  1.791422

atom: _________________________________________________________________________

prinput: Basis input ----------------------------------------------------------

PAO.BasisType split     

%block ChemicalSpeciesLabel
    1    7 N                       # Species index, atomic number, species label
    2    6 C                       # Species index, atomic number, species label
%endblock ChemicalSpeciesLabel

%block PAO.Basis                 # Define Basis set
N                     2                    # Species label, number of l-shells
 n=2   0   2                         # n, l, Nzeta 
   4.071      2.905   
   1.000      1.000   
 n=2   1   2 P   1                   # n, l, Nzeta, Polarization, NzetaPol
   4.973      3.054   
   1.000      1.000   
C                     2                    # Species label, number of l-shells
 n=2   0   2                         # n, l, Nzeta 
   4.633      3.432   
   1.000      1.000   
 n=2   1   2 P   1                   # n, l, Nzeta, Polarization, NzetaPol
   5.659      3.653   
   1.000      1.000   
%endblock PAO.Basis

prinput: ----------------------------------------------------------------------

coor:   Atomic-coordinates input format  =     Fractional

siesta: Atomic coordinates (Bohr) and species
siesta:     -2.35420  38.89134   0.00000  1        1
siesta:     -2.35420  41.57980   0.00000  1        2
siesta:      4.63094  34.85847   0.00000  1        3
siesta:      4.63094  37.54693   0.00000  1        4
siesta:     -4.68258  34.85847   0.00000  1        5
siesta:     -4.68258  37.54693   0.00000  1        6
siesta:      2.30256  17.38257   0.00000  1        7
siesta:     -7.01096  14.69411   0.00000  1        8
siesta:     -7.01096  17.38257   0.00000  1        9
siesta:     -4.68258  18.72698   0.00000  1       10
siesta:     -4.68258  21.41544   0.00000  1       11
siesta:     -2.35420  22.75985   0.00000  1       12
siesta:     -2.35420  25.44831   0.00000  1       13
siesta:    -11.66772  22.75985   0.00000  1       14
siesta:    -11.66772  25.44831   0.00000  1       15
siesta:     -9.33934  26.79272   0.00000  1       16
siesta:     -9.33934  29.48119   0.00000  1       17
siesta:     -0.02582  26.79272   0.00000  1       18
siesta:     -0.02582  29.48119   0.00000  1       19
siesta:      2.30256  30.82560   0.00000  1       20
siesta:      2.30256  33.51406   0.00000  1       21
siesta:     -7.01096  30.82560   0.00000  1       22
siesta:     -7.01096  33.51406   0.00000  1       23
siesta:     -0.02582  42.92421   0.00000  1       24
siesta:     -0.02582  45.61267   0.00000  1       25
siesta:     -0.02582   2.59549   0.00000  2       26
siesta:     -0.02582   5.28395   0.00000  2       27
siesta:      2.30256  38.89134   0.00000  2       28
siesta:      2.30256  41.57980   0.00000  2       29
siesta:      6.95932  30.82560   0.00000  2       30
siesta:      6.95932  33.51406   0.00000  2       31
siesta:      9.28770  26.79272   0.00000  2       32
siesta:      9.28770  29.48119   0.00000  2       33
siesta:      2.30256   6.62836   0.00000  2       34
siesta:      2.30256   9.31683   0.00000  2       35
siesta:      4.63094  10.66124   0.00000  2       36
siesta:      4.63094  13.34970   0.00000  2       37
siesta:      6.95932  14.69411   0.00000  2       38
siesta:      6.95932  17.38257   0.00000  2       39
siesta:      9.28770  18.72698   0.00000  2       40
siesta:      9.28770  21.41544   0.00000  2       41
siesta:     11.61608  22.75985   0.00000  2       42
siesta:     11.61608  25.44831   0.00000  2       43
siesta:     -2.35420   6.62836   0.00000  2       44
siesta:     -2.35420   9.31683   0.00000  2       45
siesta:     -0.02582  10.66124   0.00000  2       46
siesta:     -0.02582  13.34970   0.00000  2       47
siesta:      2.30256  14.69411   0.00000  2       48
siesta:      4.63094  18.72698   0.00000  2       49
siesta:      4.63094  21.41544   0.00000  2       50
siesta:      6.95932  22.75985   0.00000  2       51
siesta:      6.95932  25.44831   0.00000  2       52
siesta:     -4.68258  10.66124   0.00000  2       53
siesta:     -4.68258  13.34970   0.00000  2       54
siesta:     -2.35420  14.69411   0.00000  2       55
siesta:     -2.35420  17.38257   0.00000  2       56
siesta:     -0.02582  18.72698   0.00000  2       57
siesta:     -0.02582  21.41544   0.00000  2       58
siesta:      2.30256  22.75985   0.00000  2       59
siesta:      2.30256  25.44831   0.00000  2       60
siesta:     -9.33934  18.72698   0.00000  2       61
siesta:     -9.33934  21.41544   0.00000  2       62
siesta:     -7.01096  22.75985   0.00000  2       63
siesta:     -7.01096  25.44831   0.00000  2       64
siesta:      4.63094  26.79272   0.00000  2       65
siesta:      4.63094  29.48119   0.00000  2       66
siesta:     -4.68258  26.79272   0.00000  2       67
siesta:     -4.68258  29.48119   0.00000  2       68
siesta:     -2.35420  30.82560   0.00000  2       69
siesta:     -2.35420  33.51406   0.00000  2       70
siesta:     -0.02582  34.85847   0.00000  2       71
siesta:     -0.02582  37.54693   0.00000  2       72

siesta: System type = slab      

initatomlists: Number of atoms, orbitals, and projectors:     72   936  1152

siesta: ******************** Simulation parameters ****************************
siesta:
siesta: The following are some of the parameters of the simulation.
siesta: A complete list of the parameters used, including default values,
siesta: can be found in file out.fdf
siesta:
redata: Non-Collinear-spin run           =     F
redata: SpinPolarized (Up/Down) run      =     F
redata: Number of spin components        =     1
redata: Long output                      =     F
redata: Number of Atomic Species         =        2
redata: Charge density info will appear in .RHO file
redata: Write Mulliken Pop.              =     NO
redata: Mesh Cutoff                      =   200.0000  Ry
redata: Net charge of the system         =     0.0000 |e|
redata: Max. number of SCF Iter          =      500
redata: SCF convergence failure will abort job
redata: Performing Pulay mixing using    =    10 iterations
redata: Mix DM in first SCF step ?       =     F
redata: Write Pulay info on disk?        =     F
redata: Discard 1st Pulay DM after  kick =     F
redata: New DM Mixing Weight             =     0.0500
redata: New DM Occupancy tolerance       = 0.000000000001
redata: No kicks to SCF
redata: DM Mixing Weight for Kicks       =     0.5000
redata: DM Tolerance for SCF             =     0.000100
redata: Require Energy convergence for SCF =     F
redata: DM Energy tolerance for SCF      =     0.000100 eV
redata: Require Harris convergence for SCF =     F
redata: DM Harris energy tolerance for SCF =     0.000100 eV
redata: Using Saved Data (generic)   =     F
redata: Use continuation files for DM    =     T
redata: Neglect nonoverlap interactions  =     F
redata: Method of Calculation            =     Diagonalization
redata: Divide and Conquer               =     T
redata: Electronic Temperature           =     0.0019  Ry
redata: Fix the spin of the system       =     F
redata: Dynamics option                  =     Verlet MD run
redata: Initial MD time step             =        1
redata:   Final MD time step             =        1
redata: Length of MD time step           =     1.0000  fs
redata: Initial Temperature of MD run    =     0.0000  K
redata: Perform a MD quench              =     F
redata: ***********************************************************************
Total number of electrons:   313.000000
Total ionic charge:   313.000000

* ProcessorY, Blocksize:    2  24

k-point displ. along   1 input, could be:     0.50    0.00
k-point displ. along   2 input, could be:     0.50    0.00
 Kpoints in:          231 . Kpoints trimmed:          231

siesta: k-grid: Number of k-points =   231
siesta: k-grid: Cutoff (effective) =     5.000 Ang
siesta: k-grid: Supercell and displacements
siesta: k-grid:   21   0   0      0.500
siesta: k-grid:    0  21   0      0.500
siesta: k-grid:    0   0   1      0.000
Naive supercell factors:     2    2    2

superc: Internal auxiliary supercell:     2 x     2 x     2  =       8
superc: Number of atoms, orbitals, and projectors:    576   7488   9216

* Maximum dynamic memory allocated =     4 MB

siesta:                 ==============================
                            Begin MD step =      1
                        ==============================

superc: Internal auxiliary supercell:     2 x     2 x     2  =       8
superc: Number of atoms, orbitals, and projectors:    576   7488   9216

outcell: Unit cell vectors (Ang):
       12.804619    7.392750    0.000000
        0.000000   14.785500    0.000000
        0.000000    0.000000   10.000000

outcell: Cell vector modules (Ang)   :   14.785500   14.785500   10.000000
outcell: Cell angles (23,13,12) (deg):     90.0000     90.0000     60.0000
outcell: Cell volume (Ang**3)        :   1893.2269
New_DM. Step:     1
Initializing Density Matrix...

InitMesh: MESH =   120 x   120 x    90 =     1296000
InitMesh: Mesh cutoff (required, used) =   200.000   223.865 Ry

* Maximum dynamic memory allocated =   179 MB

stepf: Fermi-Dirac step function

siesta: Program's energy decomposition (eV):
siesta: Ebs     =     -6396.481082
siesta: Eions   =     22421.682175
siesta: Ena     =      4991.197059
siesta: Ekin    =      8476.244847
siesta: Enl     =       -89.434254
siesta: DEna    =        -0.000015
siesta: DUscf   =         0.000000
siesta: DUext   =         0.000000
siesta: Exc     =     -4802.370008
siesta: eta*DQ  =         0.000000
siesta: Emadel  =         0.000000
siesta: Emeta   =         0.000000
siesta: Emolmec =         0.000000
siesta: Ekinion =         0.000000
siesta: Eharris =    -13465.329336
siesta: Etot    =    -13846.044546
siesta: FreeEng =    -13846.044546

siesta: iscf   Eharris(eV)      E_KS(eV)   FreeEng(eV)   dDmax  Ef(eV)
siesta:    1   -13465.3293   -13846.0445   -13846.0445  4.9610 -6.7692
timer: Routine,Calls,Time,% = IterSCF        1    4080.615  99.72
elaps: Routine,Calls,Wall,% = IterSCF        1     510.665  99.72
siesta:    2   -17585.1363   -12825.0018   -12825.0323 12.8801 -4.0009
siesta:    3   -13386.5350   -13618.4776   -13618.5287  1.9950 -4.6131
siesta:    4   -13369.5064   -13478.4064   -13478.4318  1.1370 -3.7532
siesta:    5   -13320.2717   -13423.0765   -13423.1241  0.8268 -3.6197
siesta:    6   -13307.6917   -13383.1183   -13383.1659  0.7117 -3.4882
siesta:    7   -13303.9387   -13375.0340   -13375.0769  0.7705 -3.4428
siesta:    8   -13299.4677   -13359.4447   -13359.4971  0.5578 -3.4734
siesta:    9   -13298.0062   -13346.4922   -13346.5446  0.4997 -3.5185
siesta:   10   -13297.8537   -13326.5968   -13326.6548  0.3596 -3.5662
siesta:   11   -13297.8686   -13310.7465   -13310.8119  0.3097 -3.5527
siesta:   12   -13297.5471   -13290.9182   -13291.0024  0.1268 -3.5509
siesta:   13   -13297.3271   -13284.3415   -13284.4112  0.0980 -3.5355
siesta:   14   -13297.1494   -13284.2705   -13284.3332  0.0877 -3.5436
siesta:   15   -13296.8269   -13282.4450   -13282.5146  0.0923 -3.5217
siesta:   16   -13296.6927   -13283.2168   -13283.2800  0.0739 -3.5141
siesta:   17   -13296.6431   -13286.0904   -13286.1604  0.0593 -3.5116
siesta:   18   -13296.6225   -13291.7998   -13291.8692  0.0349 -3.5253
siesta:   19   -13296.6039   -13293.3605   -13293.4295  0.0287 -3.5386
siesta:   20   -13296.6012   -13294.7153   -13294.7849  0.0255 -3.5363
siesta:   21   -13296.5973   -13296.0303   -13296.1008  0.0133 -3.5325
siesta:   22   -13296.5955   -13296.6834   -13296.7530  0.0088 -3.5313
siesta:   23   -13296.5951   -13296.8433   -13296.9135  0.0093 -3.5227
siesta:   24   -13296.5937   -13296.6369   -13296.7063  0.0063 -3.5235
siesta:   25   -13296.5935   -13296.6661   -13296.7361  0.0040 -3.5236
siesta:   26   -13296.5935   -13296.8344   -13296.9043  0.0032 -3.5233
siesta:   27   -13296.5934   -13296.8575   -13296.9274  0.0019 -3.5232
siesta:   28   -13296.5934   -13296.8249   -13296.8947  0.0014 -3.5228
siesta:   29   -13296.5934   -13296.7733   -13296.8431  0.0009 -3.5231
siesta:   30   -13296.5934   -13296.7159   -13296.7858  0.0006 -3.5235
siesta:   31   -13296.5934   -13296.6995   -13296.7693  0.0006 -3.5236
siesta:   32   -13296.5934   -13296.6680   -13296.7378  0.0002 -3.5238
siesta:   33   -13296.5934   -13296.6359   -13296.7057  0.0002 -3.5238
siesta:   34   -13296.5934   -13296.6126   -13296.6825  0.0001 -3.5238
siesta:   35   -13296.5934   -13296.6058   -13296.6757  0.0001 -3.5238
siesta:   36   -13296.5934   -13296.5987   -13296.6686  0.0001 -3.5239

siesta: E_KS(eV) =           -13296.5984

siesta: E_KS - E_eggbox =    -13296.5984

siesta: Atomic forces (eV/Ang):
----------------------------------------
   Tot    0.047987   -0.243116    0.000000
----------------------------------------
   Max  690.215461
   Res  183.450163    sqrt( Sum f_i^2 / 3N )
----------------------------------------
   Max  690.215461    constrained

Stress-tensor-Voigt (kbar):     -656.44    -3291.36       -0.02       -3.25        0.00        0.00
(Free)E + p*V (eV/cell)   -11741.6951
Target enthalpy (eV/cell)   -13296.6683

siesta: Stress tensor (static) (eV/Ang**3):
        -0.409711   -0.002028    0.000000
        -0.002027   -2.054282    0.000000
         0.000000    0.000000   -0.000011

siesta: Pressure (static):       1315.93766987  kBar

siesta: Stress tensor (total) (eV/Ang**3):
        -0.409711   -0.002028    0.000000
        -0.002027   -2.054282    0.000000
         0.000000    0.000000   -0.000011

siesta: Pressure (total):       1315.93766987  kBar

siesta: Temp_ion =       0.000 K

* Maximum dynamic memory allocated =   195 MB
Computing bands...

siesta: Program's energy decomposition (eV):
siesta: Ebs     =     -5129.851772
siesta: Eions   =     22421.682175
siesta: Ena     =      4991.197059
siesta: Ekin    =     11641.215913
siesta: Enl     =     -1815.349545
siesta: DEna    =      -824.337146
siesta: DUscf   =       115.720866
siesta: DUext   =         0.000000
siesta: Exc     =     -4983.363398
siesta: eta*DQ  =         0.000000
siesta: Emadel  =         0.000000
siesta: Emeta   =         0.000000
siesta: Emolmec =         0.000000
siesta: Ekinion =         0.000000
siesta: Eharris =    -13296.593393
siesta: Etot    =    -13296.598428
siesta: FreeEng =    -13296.668285

siesta: Final energy (eV):
siesta:  Band Struct. =   -5129.851772
siesta:       Kinetic =   11641.215913
siesta:       Hartree =   37228.285060
siesta:    Ext. field =       0.000000
siesta:   Exch.-corr. =   -4983.363398
siesta:  Ion-electron =  -85553.870079
siesta:       Ion-ion =   28371.134076
siesta:       Ekinion =       0.000000
siesta:         Total =  -13296.598428

siesta: Atomic forces (eV/Ang):
siesta:      1    2.569560  110.286383    0.000000
siesta:      2  -28.430343 -655.227729    0.000000
siesta:      3   33.324741    2.671427    0.000000
siesta:      4   21.484078 -649.940240    0.000000
siesta:      5  -23.628938    3.225843    0.000000
siesta:      6  -27.517949 -655.059736    0.000000
siesta:      7   33.574103   -6.177403    0.000000
siesta:      8    2.470658    3.048674    0.000000
siesta:      9   -4.293594   -0.498166    0.000000
siesta:     10    2.779003    2.282969    0.000000
siesta:     11   -1.671620    0.646359    0.000000
siesta:     12   -0.715077   -2.440224    0.000000
siesta:     13   -2.712473    0.386077    0.000000
siesta:     14    1.654717    2.938415    0.000000
siesta:     15    0.288191   -1.762783    0.000000
siesta:     16    2.178043    0.032707    0.000000
siesta:     17   -0.848154    0.366868    0.000000
siesta:     18   -0.374443    2.983347    0.000000
siesta:     19  -11.482651 -685.272792    0.000000
siesta:     20   32.462274    8.454538    0.000000
siesta:     21   -4.607820 -673.886344    0.000000
siesta:     22    1.060911   -0.904171    0.000000
siesta:     23   -0.742981   -3.004382    0.000000
siesta:     24    0.032415  114.471097    0.000000
siesta:     25    4.693992 -650.380691    0.000000
siesta:     26   10.703615  643.101568    0.000000
siesta:     27   -0.631657 -117.921894    0.000000
siesta:     28   -1.427771  132.191010    0.000000
siesta:     29   22.551339 -556.502951    0.000000
siesta:     30    0.730299    0.827908    0.000000
siesta:     31   -1.919260    1.442025    0.000000
siesta:     32    1.580653    2.952335    0.000000
siesta:     33   -0.891456    0.163578    0.000000
siesta:     34   35.595318  651.762562    0.000000
siesta:     35   -3.732716 -122.293970    0.000000
siesta:     36   36.141505  655.144912    0.000000
siesta:     37   25.620630   -5.333010    0.000000
siesta:     38   -2.387660   -1.643332    0.000000
siesta:     39    1.228225   -0.438617    0.000000
siesta:     40   -1.402298    0.104135    0.000000
siesta:     41    1.749608   -2.823805    0.000000
siesta:     42   -0.027302    7.836789    0.000000
siesta:     43   -0.017973   -7.912862    0.000000
siesta:     44  -36.467976  550.227834    0.000000
siesta:     45    1.877417 -126.133044    0.000000
siesta:     46  -18.672530  549.197435    0.000000
siesta:     47    2.905376 -122.201507    0.000000
siesta:     48   -0.075065  561.347448    0.000000
siesta:     49   -0.567560    3.623605    0.000000
siesta:     50    0.145549   -0.989338    0.000000
siesta:     51   -0.187268    0.969957    0.000000
siesta:     52    0.128336   -1.063166    0.000000
siesta:     53  -22.999810  659.621540    0.000000
siesta:     54  -23.674236   -6.105647    0.000000
siesta:     55   -0.214040  685.954701    0.000000
siesta:     56  -25.127942   -4.790952    0.000000
siesta:     57  -11.359559  690.215461    0.000000
siesta:     58   -0.003024   -0.049581    0.000000
siesta:     59   -1.353394    1.081757    0.000000
siesta:     60    0.402224   -0.607637    0.000000
siesta:     61    0.957170   -1.502390    0.000000
siesta:     62   -0.447767   -0.696336    0.000000
siesta:     63    0.827835    0.716028    0.000000
siesta:     64    0.033750   -0.828252    0.000000
siesta:     65   -1.014181    1.326032    0.000000
siesta:     66   -0.834854   -2.943879    0.000000
siesta:     67    0.279098    0.520083    0.000000
siesta:     68    0.612976   -2.696820    0.000000
siesta:     69  -25.010735   11.417293    0.000000
siesta:     70   -2.257771 -568.822031    0.000000
siesta:     71   -0.477323  127.968249    0.000000
siesta:     72    7.613549 -552.896380    0.000000
siesta: ----------------------------------------
siesta:    Tot    0.047987   -0.243116    0.000000

siesta: Stress tensor (static) (eV/Ang**3):
siesta:    -0.409711   -0.002028    0.000000
siesta:    -0.002027   -2.054282    0.000000
siesta:     0.000000    0.000000   -0.000011

siesta: Cell volume =       1893.226884 Ang**3

siesta: Pressure (static):
siesta:                Solid            Molecule  Units
siesta:           0.00894538          0.14567924  Ry/Bohr**3
siesta:           0.82133481         13.37577270  eV/Ang**3
siesta:        1315.93766987      21430.58211495  kBar
(Free)E+ p_basis*V_orbitals  =      -13269.504758
(Free)Eharris+ p_basis*V_orbitals  =      -13269.499404

siesta: Electric dipole (a.u.)  =    0.000000    0.000000    0.000000
siesta: Electric dipole (Debye) =    0.000000    0.000000    0.000000

* Maximum dynamic memory allocated : Node    0 =   195 MB
* Maximum dynamic memory allocated : Node    1 =    70 MB
* Maximum dynamic memory allocated : Node    2 =    73 MB
* Maximum dynamic memory allocated : Node    3 =   186 MB
* Maximum dynamic memory allocated : Node    4 =   184 MB
* Maximum dynamic memory allocated : Node    5 =    70 MB
* Maximum dynamic memory allocated : Node    6 =    72 MB
* Maximum dynamic memory allocated : Node    7 =   170 MB

* Maximum memory occured during matrixMtoO                    

timer: CPU execution times:
timer:  Routine       Calls   Time/call    Tot.time        %
timer:  siesta            1  144681.513  144681.513   100.00
timer:  Setup             1       3.102       3.102     0.00
timer:  bands             3     268.495     805.486     0.56
timer:  writewave         1       0.019       0.019     0.00
timer:  KSV_init          1       0.002       0.002     0.00
timer:  IterMD            1  143867.062  143867.062    99.44
timer:  hsparse           1       0.232       0.232     0.00
timer:  overlap           1       7.691       7.691     0.01
timer:  IterSCF          36    3991.863  143707.068    99.33
timer:  kinefsm           2       3.952       7.904     0.01
timer:  nlefsm            2      18.372      36.745     0.03
timer:  DHSCF            37      82.793    3063.334     2.12
timer:  DHSCF1            1       0.760       0.760     0.00
timer:  DHSCF2            1      32.720      32.720     0.02
timer:  REORD           298       0.010       2.992     0.00
timer:  POISON           38       2.247      85.371     0.06
timer:  DHSCF3           37      81.055    2999.033     2.07
timer:  rhoofd           37      16.056     594.078     0.41
timer:  cellXC           37       3.489     129.089     0.09
timer:  vmat             37      38.748    1433.682     0.99
timer:  MolMec            2       0.000       0.000     0.00
timer:  diagon           36    3907.813  140681.258    97.24
timer:  c-eigval       8437       6.656   56154.367    38.81
timer:  c-buildHS      8437       0.111     934.288     0.65
timer:  cdiag         16753       6.848  114718.152    79.29
timer:  cdiag1        16753       0.427    7147.878     4.94
timer:  cdiag2        16753       1.901   31855.199    22.02
timer:  cdiag3        16753       3.940   66003.851    45.62
timer:  cdiag4        16753       0.204    3423.414     2.37
timer:  c-eigvec       8316       7.210   59954.651    41.44
timer:  c-buildD       8316       3.046   25332.325    17.51
timer:  DHSCF4            1      28.859      28.859     0.02
timer:  dfscf             1      27.092      27.092     0.02
timer:  overfsm           1       0.396       0.396     0.00
timer:  optical           1       5.119       5.119     0.00
  

elaps: ELAPSED times:
elaps:  Routine       Calls   Time/call    Tot.time        %
elaps:  siesta            1   18104.583   18104.583   100.00
elaps:  Setup             1       0.388       0.388     0.00
elaps:  bands             3      33.613     100.839     0.56
elaps:  writewave         1       0.002       0.002     0.00
elaps:  KSV_init          1       0.000       0.000     0.00
elaps:  IterMD            1   18002.680   18002.680    99.44
elaps:  hsparse           1       0.028       0.028     0.00
elaps:  overlap           1       0.968       0.968     0.01
elaps:  IterSCF          36     499.519   17982.667    99.33
elaps:  kinefsm           2       0.496       0.993     0.01
elaps:  nlefsm            2       2.356       4.712     0.03
elaps:  DHSCF            37      10.461     387.069     2.14
elaps:  DHSCF1            1       0.098       0.098     0.00
elaps:  DHSCF2            1       4.088       4.088     0.02
elaps:  REORD           298       0.001       0.401     0.00
elaps:  POISON           38       0.281      10.688     0.06
elaps:  DHSCF3           37      10.141     375.203     2.07
elaps:  rhoofd           37       4.435     164.086     0.91
elaps:  cellXC           37       0.436      16.124     0.09
elaps:  vmat             37       4.847     179.352     0.99
elaps:  MolMec            2       0.000       0.000     0.00
elaps:  diagon           36     488.999   17603.969    97.23
elaps:  c-eigval       8437       0.833    7025.931    38.81
elaps:  c-buildHS      8437       0.015     127.774     0.71
elaps:  cdiag         16753       0.858   14376.986    79.41
elaps:  cdiag1        16753       0.053     885.795     4.89
elaps:  cdiag2        16753       0.238    3985.754    22.02
elaps:  cdiag3        16753       0.494    8269.825    45.68
elaps:  cdiag4        16753       0.026     434.793     2.40
elaps:  c-eigvec       8316       0.909    7560.103    41.76
elaps:  c-buildD       8316       0.374    3112.074    17.19
elaps:  DHSCF4            1       7.412       7.412     0.04
elaps:  dfscf             1       7.040       7.040     0.04
elaps:  overfsm           1       0.049       0.049     0.00
elaps:  optical           1       0.000       0.000     0.00
  
>> End of run:  22-APR-2016   4:18:10
