Siesta Version:                                        siesta-3.2-pl-3
Architecture  : x86_64-unknown-linux-gnu--unknown
Compiler flags: mpiifort -g -O2 -fPIC -xSSE4.1 -fp-model source -shared-intel 
PARALLEL version

* Running on    8 nodes in parallel
>> Start of run:  26-APR-2016  10:23:29

                           ***********************       
                           *  WELCOME TO SIESTA  *       
                           ***********************       

reinit: Reading from standard input
************************** Dump of input data file ****************************
#(1) General system descriptors
SystemName            GRP_doping    # Descriptive name of the system
SystemLabel           GRP_doping    # Short name for naming files
%include STRUCT.fdf
%include KPT.fdf
%include BASIS.fdf
#%include TS.fdf # for transiesta calculation
#(4) DFT, Grid, SCF
XC.functional         GGA           # LDA or GGA (default = LDA)
XC.authors            PBE           # CA (Ceperley-Aldr) = PZ
                                    #    (Perdew-Zunger) - LDA - Default
                                    # PW92 (Perdew-Wang-92) - LDA
                                    # PBE (Perdew-Burke-Ernzerhof) - GGA
MeshCutoff            200.000000    Ry      # Default: 50.0 Ry ~ 0.444 Bohr
                                    #         100.0 Ry ~ 0.314 Bohr
MaxSCFIterations      500           # Default: 50
DM.MixingWeight       0.05          # Default: 0.25
DM.NumberPulay        10            # Default: 0
DM.PulayOnFile        F             # SystemLabel.P1, SystemLabel.P2
DM.Tolerance          1.d-4         # Default: 1.d-4
DM.UseSaveDM          .true.        # because of the bug
SCFMustConverge       .true.
NeglNonOverlapInt     F             # Default: F
#(5) Eigenvalue problem: order-N or diagonalization
SolutionMethod        Diagon        # or Transiesta
ElectronicTemperature 300.0 K       # Default: 300.0 K
#(6) Molecular dynamics and relaxations
#MD.TypeOfRun          CG            # Type of dynamics:
#MD.VariableCell       F
#MD.NumCGsteps         0           # 0 for single-point / 100 for gopt
#MD.MaxCGDispl         0.2 Bohr      # Default: 0.2 Bohr
#MD.MaxForceTol        0.02 eV/Ang   # Default: 0.04 eV/Ang
#MD.MaxStressTol       1.0 GPa       # Default: 1.0 GPa
# Geometry Constraints
#%block GeometryConstraints
#	position from 1 to 44
#%endblock GeometryConstraints
BandLinesScale   pi/a
%block BandLines
 1   0.00000000  0.00000000  0.00000000
50   0.00000000  0.07809418  0.00000000
50   0.04509075  0.07809242  0.00000000
20   0.00000000  0.00000000  0.00000000
%endblock BandLines
************************** End of input data file *****************************

reinit: -----------------------------------------------------------------------
reinit: System Name: GRP_doping
reinit: -----------------------------------------------------------------------
reinit: System Label: GRP_doping                                                  
reinit: -----------------------------------------------------------------------

initatom: Reading input for the pseudopotentials and atomic orbitals ----------
 Species number:            1  Label: N Atomic number:           7
 Species number:            2  Label: C Atomic number:           6
Ground state valence configuration:   2s02  2p03
Reading pseudopotential information in formatted form from N.psf

Valence configuration for pseudopotential generation:
2s( 2.00) rc: 1.48
2p( 3.00) rc: 1.48
3d( 0.00) rc: 1.48
4f( 0.00) rc: 1.48
Ground state valence configuration:   2s02  2p02
Reading pseudopotential information in formatted form from C.psf

Valence configuration for pseudopotential generation:
2s( 2.00) rc: 1.54
2p( 2.00) rc: 1.54
3d( 0.00) rc: 1.54
4f( 0.00) rc: 1.54
For N, standard SIESTA heuristics set lmxkb to 3
 (one more than the basis l, including polarization orbitals).
Use PS.lmax or PS.KBprojectors blocks to override.
For C, standard SIESTA heuristics set lmxkb to 3
 (one more than the basis l, including polarization orbitals).
Use PS.lmax or PS.KBprojectors blocks to override.

<basis_specs>
===============================================================================
N                    Z=   7    Mass=  14.010        Charge= 0.17977+309
Lmxo=1 Lmxkb= 3    BasisType=split      Semic=F
L=0  Nsemic=0  Cnfigmx=2
          n=1  nzeta=2  polorb=0
            splnorm:   0.15000    
               vcte:    0.0000    
               rinn:    0.0000    
                rcs:    0.0000      0.0000    
            lambdas:    1.0000      1.0000    
L=1  Nsemic=0  Cnfigmx=2
          n=1  nzeta=2  polorb=1
            splnorm:   0.15000    
               vcte:    0.0000    
               rinn:    0.0000    
                rcs:    0.0000      0.0000    
            lambdas:    1.0000      1.0000    
-------------------------------------------------------------------------------
L=0  Nkbl=1  erefs: 0.17977+309
L=1  Nkbl=1  erefs: 0.17977+309
L=2  Nkbl=1  erefs: 0.17977+309
L=3  Nkbl=1  erefs: 0.17977+309
===============================================================================
</basis_specs>

atom: Called for N                     (Z =   7)

read_vps: Pseudopotential generation method:
read_vps: ATM3      Troullier-Martins                       
Total valence charge:    5.00000

read_vps: Pseudopotential includes a core correction:
read_vps: Pseudo-core for xc-correction

xc_check: Exchange-correlation functional:
xc_check: GGA Perdew, Burke & Ernzerhof 1996
V l=0 = -2*Zval/r beyond r=  1.4606
V l=1 = -2*Zval/r beyond r=  1.4606
V l=2 = -2*Zval/r beyond r=  1.4606
V l=3 = -2*Zval/r beyond r=  1.4606
All V_l potentials equal beyond r=  1.4606
This should be close to max(r_c) in ps generation
All pots = -2*Zval/r beyond r=  1.4606

VLOCAL1: 99.0% of the norm of Vloc inside     20.347 Ry
VLOCAL1: 99.9% of the norm of Vloc inside     46.372 Ry
atom: Maximum radius for 4*pi*r*r*local-pseudopot. charge    1.76189
atom: Maximum radius for r*vlocal+2*Zval:    1.53550
GHOST: No ghost state for L =  0
GHOST: No ghost state for L =  1
GHOST: No ghost state for L =  2
GHOST: No ghost state for L =  3

KBgen: Kleinman-Bylander projectors: 
   l= 0   rc=  1.634559   el= -1.363963   Ekb=  5.296955   kbcos=  0.335621
   l= 1   rc=  1.614250   el= -0.521451   Ekb= -5.259161   kbcos= -0.433408
   l= 2   rc=  1.718383   el=  0.001991   Ekb= -1.271464   kbcos= -0.007566
   l= 3   rc=  1.761893   el=  0.003093   Ekb= -0.494769   kbcos= -0.001015

KBgen: Total number of  Kleinman-Bylander projectors:   16
atom: -------------------------------------------------------------------------

atom: SANKEY-TYPE ORBITALS:
atom: Selected multiple-zeta basis: split     

SPLIT: Orbitals with angular momentum L= 0

SPLIT: Basis orbitals for state 2s

SPLIT: PAO cut-off radius determined from an
SPLIT: energy shift=  0.007350 Ry

   izeta = 1
                 lambda =    1.000000
                     rc =    4.071465
                 energy =   -1.356470
                kinetic =    1.176977
    potential(screened) =   -2.533447
       potential(ionic) =   -8.057990

   izeta = 2
                 rmatch =    2.905100
              splitnorm =    0.150000
                 energy =   -1.158343
                kinetic =    1.813009
    potential(screened) =   -2.971352
       potential(ionic) =   -8.901931

SPLIT: Orbitals with angular momentum L= 1

SPLIT: Basis orbitals for state 2p

SPLIT: PAO cut-off radius determined from an
SPLIT: energy shift=  0.007350 Ry

   izeta = 1
                 lambda =    1.000000
                     rc =    4.972977
                 energy =   -0.513884
                kinetic =    3.441732
    potential(screened) =   -3.955616
       potential(ionic) =   -9.287901

   izeta = 2
                 rmatch =    3.054066
              splitnorm =    0.150000
                 energy =   -0.318226
                kinetic =    5.125348
    potential(screened) =   -5.443573
       potential(ionic) =  -11.380999

POLgen: Perturbative polarization orbital with L=  2

POLgen: Polarization orbital for state 2p

   izeta = 1
                     rc =    4.972977
                 energy =    1.607437
                kinetic =    3.268125
    potential(screened) =   -1.660688
       potential(ionic) =   -5.973652
atom: Total number of Sankey-type orbitals: 13

atm_pop: Valence configuration (for local Pseudopot. screening):
 2s( 2.00)                                                            
 2p( 3.00)                                                            
Vna: chval, zval:    5.00000   5.00000

Vna:  Cut-off radius for the neutral-atom potential:   4.972977
comcore: Pseudo-core radius Rcore=  1.554824

atom: _________________________________________________________________________

<basis_specs>
===============================================================================
C                    Z=   6    Mass=  12.010        Charge= 0.17977+309
Lmxo=1 Lmxkb= 3    BasisType=split      Semic=F
L=0  Nsemic=0  Cnfigmx=2
          n=1  nzeta=2  polorb=0
            splnorm:   0.15000    
               vcte:    0.0000    
               rinn:    0.0000    
                rcs:    0.0000      0.0000    
            lambdas:    1.0000      1.0000    
L=1  Nsemic=0  Cnfigmx=2
          n=1  nzeta=2  polorb=1
            splnorm:   0.15000    
               vcte:    0.0000    
               rinn:    0.0000    
                rcs:    0.0000      0.0000    
            lambdas:    1.0000      1.0000    
-------------------------------------------------------------------------------
L=0  Nkbl=1  erefs: 0.17977+309
L=1  Nkbl=1  erefs: 0.17977+309
L=2  Nkbl=1  erefs: 0.17977+309
L=3  Nkbl=1  erefs: 0.17977+309
===============================================================================
</basis_specs>

atom: Called for C                     (Z =   6)

read_vps: Pseudopotential generation method:
read_vps: ATM3      Troullier-Martins                       
Total valence charge:    4.00000

read_vps: Pseudopotential includes a core correction:
read_vps: Pseudo-core for xc-correction

xc_check: Exchange-correlation functional:
xc_check: GGA Perdew, Burke & Ernzerhof 1996
V l=0 = -2*Zval/r beyond r=  1.5227
V l=1 = -2*Zval/r beyond r=  1.5227
V l=2 = -2*Zval/r beyond r=  1.5227
V l=3 = -2*Zval/r beyond r=  1.5038
All V_l potentials equal beyond r=  1.5227
This should be close to max(r_c) in ps generation
All pots = -2*Zval/r beyond r=  1.5227

VLOCAL1: 99.0% of the norm of Vloc inside     18.722 Ry
VLOCAL1: 99.9% of the norm of Vloc inside     42.668 Ry
atom: Maximum radius for 4*pi*r*r*local-pseudopot. charge    1.83678
atom: Maximum radius for r*vlocal+2*Zval:    1.58088
GHOST: No ghost state for L =  0
GHOST: No ghost state for L =  1
GHOST: No ghost state for L =  2
GHOST: No ghost state for L =  3

KBgen: Kleinman-Bylander projectors: 
   l= 0   rc=  1.704034   el= -1.009801   Ekb=  5.335044   kbcos=  0.316824
   l= 1   rc=  1.704034   el= -0.388707   Ekb= -3.785862   kbcos= -0.366464
   l= 2   rc=  1.791422   el=  0.001971   Ekb= -0.970471   kbcos= -0.009212
   l= 3   rc=  1.859892   el=  0.003065   Ekb= -0.399525   kbcos= -0.001223

KBgen: Total number of  Kleinman-Bylander projectors:   16
atom: -------------------------------------------------------------------------

atom: SANKEY-TYPE ORBITALS:
atom: Selected multiple-zeta basis: split     

SPLIT: Orbitals with angular momentum L= 0

SPLIT: Basis orbitals for state 2s

SPLIT: PAO cut-off radius determined from an
SPLIT: energy shift=  0.007350 Ry

   izeta = 1
                 lambda =    1.000000
                     rc =    4.632753
                 energy =   -1.002270
                kinetic =    0.855760
    potential(screened) =   -1.858031
       potential(ionic) =   -5.417575

   izeta = 2
                 rmatch =    3.431921
              splitnorm =    0.150000
                 energy =   -0.867111
                kinetic =    1.300804
    potential(screened) =   -2.167915
       potential(ionic) =   -5.962684

SPLIT: Orbitals with angular momentum L= 1

SPLIT: Basis orbitals for state 2p

SPLIT: PAO cut-off radius determined from an
SPLIT: energy shift=  0.007350 Ry

   izeta = 1
                 lambda =    1.000000
                     rc =    5.658549
                 energy =   -0.381140
                kinetic =    2.399701
    potential(screened) =   -2.780841
       potential(ionic) =   -6.206085

   izeta = 2
                 rmatch =    3.653288
              splitnorm =    0.150000
                 energy =   -0.249149
                kinetic =    3.542762
    potential(screened) =   -3.791911
       potential(ionic) =   -7.581078

POLgen: Perturbative polarization orbital with L=  2

POLgen: Polarization orbital for state 2p

   izeta = 1
                     rc =    5.658549
                 energy =    1.109913
                kinetic =    2.304789
    potential(screened) =   -1.194876
       potential(ionic) =   -4.013592
atom: Total number of Sankey-type orbitals: 13

atm_pop: Valence configuration (for local Pseudopot. screening):
 2s( 2.00)                                                            
 2p( 2.00)                                                            
Vna: chval, zval:    4.00000   4.00000

Vna:  Cut-off radius for the neutral-atom potential:   5.658549
comcore: Pseudo-core radius Rcore=  1.791422

atom: _________________________________________________________________________

prinput: Basis input ----------------------------------------------------------

PAO.BasisType split     

%block ChemicalSpeciesLabel
    1    7 N                       # Species index, atomic number, species label
    2    6 C                       # Species index, atomic number, species label
%endblock ChemicalSpeciesLabel

%block PAO.Basis                 # Define Basis set
N                     2                    # Species label, number of l-shells
 n=2   0   2                         # n, l, Nzeta 
   4.071      2.905   
   1.000      1.000   
 n=2   1   2 P   1                   # n, l, Nzeta, Polarization, NzetaPol
   4.973      3.054   
   1.000      1.000   
C                     2                    # Species label, number of l-shells
 n=2   0   2                         # n, l, Nzeta 
   4.633      3.432   
   1.000      1.000   
 n=2   1   2 P   1                   # n, l, Nzeta, Polarization, NzetaPol
   5.659      3.653   
   1.000      1.000   
%endblock PAO.Basis

prinput: ----------------------------------------------------------------------

coor:   Atomic-coordinates input format  =     Fractional

siesta: Atomic coordinates (Bohr) and species
siesta:     -4.68258  34.85847   0.00000  1        1
siesta:      4.63094  13.34970   0.00000  1        2
siesta:      6.95932  14.69411   0.00000  1        3
siesta:      6.95932  17.38257   0.00000  1        4
siesta:      2.30256  14.69411   0.00000  1        5
siesta:      2.30256  17.38257   0.00000  1        6
siesta:      4.63094  18.72698   0.00000  1        7
siesta:      4.63094  21.41544   0.00000  1        8
siesta:     -0.02582  18.72698   0.00000  1        9
siesta:     -0.02582  21.41544   0.00000  1       10
siesta:      2.30256  22.75985   0.00000  1       11
siesta:      2.30256  25.44831   0.00000  1       12
siesta:     -7.01096  25.44831   0.00000  1       13
siesta:     -9.33934  26.79272   0.00000  1       14
siesta:     -9.33934  29.48119   0.00000  1       15
siesta:     -0.02582  26.79272   0.00000  1       16
siesta:     -0.02582  29.48119   0.00000  1       17
siesta:     -4.68258  26.79272   0.00000  1       18
siesta:     -4.68258  29.48119   0.00000  1       19
siesta:     -2.35420  30.82560   0.00000  1       20
siesta:     -2.35420  33.51406   0.00000  1       21
siesta:     -7.01096  30.82560   0.00000  1       22
siesta:     -7.01096  33.51406   0.00000  1       23
siesta:     -0.02582   2.59549   0.00000  2       24
siesta:     -0.02582   5.28395   0.00000  2       25
siesta:     -2.35420  38.89134   0.00000  2       26
siesta:     -2.35420  41.57980   0.00000  2       27
siesta:      2.30256  38.89134   0.00000  2       28
siesta:      2.30256  41.57980   0.00000  2       29
siesta:      4.63094  34.85847   0.00000  2       30
siesta:      4.63094  37.54693   0.00000  2       31
siesta:      6.95932  30.82560   0.00000  2       32
siesta:      6.95932  33.51406   0.00000  2       33
siesta:      9.28770  26.79272   0.00000  2       34
siesta:      9.28770  29.48119   0.00000  2       35
siesta:     -4.68258  37.54693   0.00000  2       36
siesta:      2.30256   6.62836   0.00000  2       37
siesta:      2.30256   9.31683   0.00000  2       38
siesta:      4.63094  10.66124   0.00000  2       39
siesta:      9.28770  18.72698   0.00000  2       40
siesta:      9.28770  21.41544   0.00000  2       41
siesta:     11.61608  22.75985   0.00000  2       42
siesta:     11.61608  25.44831   0.00000  2       43
siesta:     -2.35420   6.62836   0.00000  2       44
siesta:     -2.35420   9.31683   0.00000  2       45
siesta:     -0.02582  10.66124   0.00000  2       46
siesta:     -0.02582  13.34970   0.00000  2       47
siesta:      6.95932  22.75985   0.00000  2       48
siesta:      6.95932  25.44831   0.00000  2       49
siesta:     -4.68258  10.66124   0.00000  2       50
siesta:     -4.68258  13.34970   0.00000  2       51
siesta:     -2.35420  14.69411   0.00000  2       52
siesta:     -2.35420  17.38257   0.00000  2       53
siesta:     -7.01096  14.69411   0.00000  2       54
siesta:     -7.01096  17.38257   0.00000  2       55
siesta:     -4.68258  18.72698   0.00000  2       56
siesta:     -4.68258  21.41544   0.00000  2       57
siesta:     -2.35420  22.75985   0.00000  2       58
siesta:     -2.35420  25.44831   0.00000  2       59
siesta:     -9.33934  18.72698   0.00000  2       60
siesta:     -9.33934  21.41544   0.00000  2       61
siesta:     -7.01096  22.75985   0.00000  2       62
siesta:    -11.66772  22.75985   0.00000  2       63
siesta:    -11.66772  25.44831   0.00000  2       64
siesta:      4.63094  26.79272   0.00000  2       65
siesta:      4.63094  29.48119   0.00000  2       66
siesta:      2.30256  30.82560   0.00000  2       67
siesta:      2.30256  33.51406   0.00000  2       68
siesta:     -0.02582  34.85847   0.00000  2       69
siesta:     -0.02582  37.54693   0.00000  2       70
siesta:     -0.02582  42.92421   0.00000  2       71
siesta:     -0.02582  45.61267   0.00000  2       72

siesta: System type = slab      

initatomlists: Number of atoms, orbitals, and projectors:     72   936  1152

siesta: ******************** Simulation parameters ****************************
siesta:
siesta: The following are some of the parameters of the simulation.
siesta: A complete list of the parameters used, including default values,
siesta: can be found in file out.fdf
siesta:
redata: Non-Collinear-spin run           =     F
redata: SpinPolarized (Up/Down) run      =     F
redata: Number of spin components        =     1
redata: Long output                      =     F
redata: Number of Atomic Species         =        2
redata: Charge density info will appear in .RHO file
redata: Write Mulliken Pop.              =     NO
redata: Mesh Cutoff                      =   200.0000  Ry
redata: Net charge of the system         =     0.0000 |e|
redata: Max. number of SCF Iter          =      500
redata: SCF convergence failure will abort job
redata: Performing Pulay mixing using    =    10 iterations
redata: Mix DM in first SCF step ?       =     F
redata: Write Pulay info on disk?        =     F
redata: Discard 1st Pulay DM after  kick =     F
redata: New DM Mixing Weight             =     0.0500
redata: New DM Occupancy tolerance       = 0.000000000001
redata: No kicks to SCF
redata: DM Mixing Weight for Kicks       =     0.5000
redata: DM Tolerance for SCF             =     0.000100
redata: Require Energy convergence for SCF =     F
redata: DM Energy tolerance for SCF      =     0.000100 eV
redata: Require Harris convergence for SCF =     F
redata: DM Harris energy tolerance for SCF =     0.000100 eV
redata: Using Saved Data (generic)   =     F
redata: Use continuation files for DM    =     T
redata: Neglect nonoverlap interactions  =     F
redata: Method of Calculation            =     Diagonalization
redata: Divide and Conquer               =     T
redata: Electronic Temperature           =     0.0019  Ry
redata: Fix the spin of the system       =     F
redata: Dynamics option                  =     Verlet MD run
redata: Initial MD time step             =        1
redata:   Final MD time step             =        1
redata: Length of MD time step           =     1.0000  fs
redata: Initial Temperature of MD run    =     0.0000  K
redata: Perform a MD quench              =     F
redata: ***********************************************************************
Total number of electrons:   311.000000
Total ionic charge:   311.000000

* ProcessorY, Blocksize:    2  24

k-point displ. along   1 input, could be:     0.50    0.00
k-point displ. along   2 input, could be:     0.50    0.00
 Kpoints in:          231 . Kpoints trimmed:          231

siesta: k-grid: Number of k-points =   231
siesta: k-grid: Cutoff (effective) =     5.000 Ang
siesta: k-grid: Supercell and displacements
siesta: k-grid:   21   0   0      0.500
siesta: k-grid:    0  21   0      0.500
siesta: k-grid:    0   0   1      0.000
Naive supercell factors:     2    2    2

superc: Internal auxiliary supercell:     2 x     2 x     2  =       8
superc: Number of atoms, orbitals, and projectors:    576   7488   9216

* Maximum dynamic memory allocated =     4 MB

siesta:                 ==============================
                            Begin MD step =      1
                        ==============================

superc: Internal auxiliary supercell:     2 x     2 x     2  =       8
superc: Number of atoms, orbitals, and projectors:    576   7488   9216

outcell: Unit cell vectors (Ang):
       12.804619    7.392750    0.000000
        0.000000   14.785500    0.000000
        0.000000    0.000000   10.000000

outcell: Cell vector modules (Ang)   :   14.785500   14.785500   10.000000
outcell: Cell angles (23,13,12) (deg):     90.0000     90.0000     60.0000
outcell: Cell volume (Ang**3)        :   1893.2269
New_DM. Step:     1
Initializing Density Matrix...

InitMesh: MESH =   120 x   120 x    90 =     1296000
InitMesh: Mesh cutoff (required, used) =   200.000   223.865 Ry

* Maximum dynamic memory allocated =   180 MB

stepf: Fermi-Dirac step function

siesta: Program's energy decomposition (eV):
siesta: Ebs     =     -6300.340074
siesta: Eions   =     22100.188487
siesta: Ena     =      4965.638106
siesta: Ekin    =      8308.399223
siesta: Enl     =       -18.040892
siesta: DEna    =        -0.000015
siesta: DUscf   =         0.000000
siesta: DUext   =         0.000000
siesta: Exc     =     -4743.375819
siesta: eta*DQ  =         0.000000
siesta: Emadel  =         0.000000
siesta: Emeta   =         0.000000
siesta: Emolmec =         0.000000
siesta: Ekinion =         0.000000
siesta: Eharris =    -13235.636124
siesta: Etot    =    -13587.567882
siesta: FreeEng =    -13587.567882

siesta: iscf   Eharris(eV)      E_KS(eV)   FreeEng(eV)   dDmax  Ef(eV)
siesta:    1   -13235.6361   -13587.5679   -13587.5679  5.4900 -6.8629
timer: Routine,Calls,Time,% = IterSCF        1    4303.100  99.74
elaps: Routine,Calls,Wall,% = IterSCF        1     538.546  99.74
siesta:    2   -20049.1881   -12283.7535   -12283.8280 22.2107 -7.5910
siesta:    3   -13243.4242   -13359.7530   -13359.7891  1.6445 -4.6897
siesta:    4   -13153.1620   -13258.2540   -13258.3056  1.2406 -4.3788
siesta:    5   -13075.9442   -13144.9648   -13145.0208  0.8918 -3.7689
siesta:    6   -13072.1911   -13115.1098   -13115.1615  0.8193 -3.6900
siesta:    7   -13063.4178   -13107.0644   -13107.1036  0.7581 -3.7178
siesta:    8   -13054.1665   -13089.8002   -13089.8555  0.6166 -3.5679
siesta:    9   -13053.0246   -13077.9694   -13078.0345  0.5156 -3.5943
siesta:   10   -13052.8982   -13071.8744   -13071.9345  0.4721 -3.5591
siesta:   11   -13051.9878   -13052.8750   -13052.9278  0.3144 -3.6649
siesta:   12   -13052.1063   -13048.2567   -13048.3244  0.2166 -3.6857
siesta:   13   -13051.7854   -13045.8477   -13045.9162  0.2516 -3.6883
siesta:   14   -13050.9876   -13046.8939   -13046.9738  0.1936 -3.6930
siesta:   15   -13050.6691   -13047.0865   -13047.1666  0.2186 -3.6797
siesta:   16   -13050.5554   -13046.2541   -13046.3214  0.1471 -3.6691
siesta:   17   -13050.4712   -13045.3785   -13045.4522  0.1210 -3.6596
siesta:   18   -13050.4202   -13046.3751   -13046.4511  0.0723 -3.6604
siesta:   19   -13050.3716   -13047.2340   -13047.3147  0.0527 -3.6574
siesta:   20   -13050.3426   -13049.1428   -13049.2214  0.0307 -3.6638
siesta:   21   -13050.3347   -13049.2835   -13049.3655  0.0211 -3.6602
siesta:   22   -13050.3316   -13049.3068   -13049.3858  0.0261 -3.6591
siesta:   23   -13050.3305   -13048.9343   -13049.0129  0.0147 -3.6555
siesta:   24   -13050.3294   -13048.8091   -13048.8874  0.0119 -3.6545
siesta:   25   -13050.3293   -13048.7014   -13048.7802  0.0101 -3.6531
siesta:   26   -13050.3288   -13048.8661   -13048.9446  0.0077 -3.6516
siesta:   27   -13050.3284   -13049.5263   -13049.6047  0.0049 -3.6520
siesta:   28   -13050.3281   -13049.8498   -13049.9282  0.0034 -3.6530
siesta:   29   -13050.3281   -13049.9614   -13050.0396  0.0027 -3.6534
siesta:   30   -13050.3279   -13050.0304   -13050.1086  0.0023 -3.6539
siesta:   31   -13050.3278   -13050.1174   -13050.1957  0.0016 -3.6543
siesta:   32   -13050.3279   -13050.2311   -13050.3094  0.0007 -3.6546
siesta:   33   -13050.3278   -13050.2766   -13050.3548  0.0006 -3.6548
siesta:   34   -13050.3279   -13050.2974   -13050.3757  0.0002 -3.6548
siesta:   35   -13050.3279   -13050.3021   -13050.3804  0.0002 -3.6547
siesta:   36   -13050.3279   -13050.3042   -13050.3825  0.0002 -3.6547
siesta:   37   -13050.3279   -13050.3126   -13050.3909  0.0002 -3.6546
siesta:   38   -13050.3279   -13050.3152   -13050.3935  0.0001 -3.6545

siesta: E_KS(eV) =           -13050.3169

siesta: E_KS - E_eggbox =    -13050.3169

siesta: Atomic forces (eV/Ang):
----------------------------------------
   Tot    0.054211   -0.055701    0.000000
----------------------------------------
   Max  683.231137
   Res  176.184207    sqrt( Sum f_i^2 / 3N )
----------------------------------------
   Max  683.231137    constrained

Stress-tensor-Voigt (kbar):     -736.53    -3105.44       -0.02       42.99        0.00        0.00
(Free)E + p*V (eV/cell)   -11537.1054
Target enthalpy (eV/cell)   -13050.3952

siesta: Stress tensor (static) (eV/Ang**3):
        -0.459702    0.026831    0.000000
         0.026831   -1.938240    0.000000
         0.000000    0.000000   -0.000011

siesta: Pressure (static):       1280.66201579  kBar

siesta: Stress tensor (total) (eV/Ang**3):
        -0.459702    0.026831    0.000000
         0.026831   -1.938240    0.000000
         0.000000    0.000000   -0.000011

siesta: Pressure (total):       1280.66201579  kBar

siesta: Temp_ion =       0.000 K

* Maximum dynamic memory allocated =   197 MB
Computing bands...

siesta: Program's energy decomposition (eV):
siesta: Ebs     =     -5068.526788
siesta: Eions   =     22100.188487
siesta: Ena     =      4965.638106
siesta: Ekin    =     11369.475472
siesta: Enl     =     -1683.798082
siesta: DEna    =      -797.570815
siesta: DUscf   =       113.873018
siesta: DUext   =         0.000000
siesta: Exc     =     -4917.746139
siesta: eta*DQ  =         0.000000
siesta: Emadel  =         0.000000
siesta: Emeta   =         0.000000
siesta: Emolmec =         0.000000
siesta: Ekinion =         0.000000
siesta: Eharris =    -13050.327856
siesta: Etot    =    -13050.316925
siesta: FreeEng =    -13050.395202

siesta: Final energy (eV):
siesta:  Band Struct. =   -5068.526788
siesta:       Kinetic =   11369.475472
siesta:       Hartree =   36397.660906
siesta:    Ext. field =       0.000000
siesta:   Exch.-corr. =   -4917.746139
siesta:  Ion-electron =  -83638.814434
siesta:       Ion-ion =   27739.107269
siesta:       Ekinion =       0.000000
siesta:         Total =  -13050.316925

siesta: Atomic forces (eV/Ang):
siesta:      1  -30.386127   13.295444    0.000000
siesta:      2   30.087430  -13.015194    0.000000
siesta:      3    0.418122    3.542078    0.000000
siesta:      4    3.845297   -0.913402    0.000000
siesta:      5   -4.475208  679.859445    0.000000
siesta:      6   34.839722  -13.470708    0.000000
siesta:      7    0.375436    2.218931    0.000000
siesta:      8    2.137599    0.058659    0.000000
siesta:      9  -18.130163  683.231137    0.000000
siesta:     10   -1.421847   -3.495391    0.000000
siesta:     11    1.043872   -1.939492    0.000000
siesta:     12    1.345585    0.872281    0.000000
siesta:     13   -0.138153   -1.259972    0.000000
siesta:     14   -0.985312    0.473324    0.000000
siesta:     15    0.119065    0.481142    0.000000
siesta:     16   -0.517622    3.244790    0.000000
siesta:     17   13.570525 -682.946691    0.000000
siesta:     18    0.902678   -0.148178    0.000000
siesta:     19   -2.652689   -1.993104    0.000000
siesta:     20  -34.292400   12.759171    0.000000
siesta:     21    5.343969 -678.884272    0.000000
siesta:     22   -0.672726   -0.064005    0.000000
siesta:     23   -1.036138   -4.044335    0.000000
siesta:     24   -6.332318  643.010038    0.000000
siesta:     25   -4.036356 -120.518505    0.000000
siesta:     26    0.698928  126.352410    0.000000
siesta:     27  -12.691508 -547.595396    0.000000
siesta:     28    1.144360  117.712752    0.000000
siesta:     29   32.676096 -653.343355    0.000000
siesta:     30   27.015793    5.137623    0.000000
siesta:     31   34.487929 -553.118629    0.000000
siesta:     32    2.489264    0.152795    0.000000
siesta:     33   -2.495839    1.109521    0.000000
siesta:     34    2.032535    2.399119    0.000000
siesta:     35   -1.066260    0.169334    0.000000
siesta:     36  -23.171665 -550.603275    0.000000
siesta:     37   12.329239  547.339276    0.000000
siesta:     38   -0.341309 -126.233967    0.000000
siesta:     39   23.423446  550.793602    0.000000
siesta:     40   -1.660355   -2.399009    0.000000
siesta:     41    0.494934   -1.987780    0.000000
siesta:     42   -0.081181    6.256574    0.000000
siesta:     43   -0.296617   -7.017938    0.000000
siesta:     44  -31.989832  653.247029    0.000000
siesta:     45   -1.469670 -118.005086    0.000000
siesta:     46    4.090213  545.098723    0.000000
siesta:     47   -1.774628 -128.137903    0.000000
siesta:     48   -1.297482    0.321911    0.000000
siesta:     49   -1.169732   -1.048648    0.000000
siesta:     50  -34.681587  553.448700    0.000000
siesta:     51  -27.352090   -4.875759    0.000000
siesta:     52  -26.232415  557.245843    0.000000
siesta:     53  -25.089188  -11.191551    0.000000
siesta:     54    2.171650   -1.436584    0.000000
siesta:     55   -1.968668   -0.002275    0.000000
siesta:     56    1.035454    3.140331    0.000000
siesta:     57   -0.593406   -0.638532    0.000000
siesta:     58    0.869690    2.143693    0.000000
siesta:     59   -0.158347   -0.418394    0.000000
siesta:     60    1.346674   -0.413249    0.000000
siesta:     61   -1.710335   -1.599253    0.000000
siesta:     62    0.529597    0.958740    0.000000
siesta:     63    0.120944    4.579325    0.000000
siesta:     64    1.606580   -1.356456    0.000000
siesta:     65   -0.249083    0.768979    0.000000
siesta:     66   -1.698130   -3.704405    0.000000
siesta:     67   25.429847   10.672228    0.000000
siesta:     68   25.523892 -557.989457    0.000000
siesta:     69    0.705128  128.247725    0.000000
siesta:     70   -4.189489 -545.074278    0.000000
siesta:     71    4.349874  120.270291    0.000000
siesta:     72    9.958722 -639.784236    0.000000
siesta: ----------------------------------------
siesta:    Tot    0.054211   -0.055701    0.000000

siesta: Stress tensor (static) (eV/Ang**3):
siesta:    -0.459702    0.026831    0.000000
siesta:     0.026831   -1.938240    0.000000
siesta:     0.000000    0.000000   -0.000011

siesta: Cell volume =       1893.226884 Ang**3

siesta: Pressure (static):
siesta:                Solid            Molecule  Units
siesta:           0.00870559          0.13827903  Ry/Bohr**3
siesta:           0.79931772         12.69631027  eV/Ang**3
siesta:        1280.66201579      20341.95153044  kBar
(Free)E+ p_basis*V_orbitals  =      -13022.945747
(Free)Eharris+ p_basis*V_orbitals  =      -13022.958412

siesta: Electric dipole (a.u.)  =    0.000000    0.000000    0.000000
siesta: Electric dipole (Debye) =    0.000000    0.000000    0.000000

* Maximum dynamic memory allocated : Node    0 =   197 MB
* Maximum dynamic memory allocated : Node    1 =    69 MB
* Maximum dynamic memory allocated : Node    2 =    71 MB
* Maximum dynamic memory allocated : Node    3 =   187 MB
* Maximum dynamic memory allocated : Node    4 =   187 MB
* Maximum dynamic memory allocated : Node    5 =    71 MB
* Maximum dynamic memory allocated : Node    6 =    72 MB
* Maximum dynamic memory allocated : Node    7 =   171 MB

* Maximum memory occured during matrixMtoO                    

timer: CPU execution times:
timer:  Routine       Calls   Time/call    Tot.time        %
timer:  siesta            1  161512.081  161512.081   100.00
timer:  Setup             1       3.047       3.047     0.00
timer:  bands             3     272.460     817.379     0.51
timer:  writewave         1       0.021       0.021     0.00
timer:  KSV_init          1       0.002       0.002     0.00
timer:  IterMD            1  160685.783  160685.783    99.49
timer:  hsparse           1       0.228       0.228     0.00
timer:  overlap           1       7.703       7.703     0.00
timer:  IterSCF          38    4224.216  160520.219    99.39
timer:  kinefsm           2       3.954       7.907     0.00
timer:  nlefsm            2      18.363      36.727     0.02
timer:  DHSCF            39      85.561    3336.866     2.07
timer:  DHSCF1            1       0.773       0.773     0.00
timer:  DHSCF2            1      32.729      32.729     0.02
timer:  REORD           314       0.010       3.260     0.00
timer:  POISON           40       2.546     101.838     0.06
timer:  DHSCF3           39      83.897    3271.977     2.03
timer:  rhoofd           39      16.368     638.370     0.40
timer:  cellXC           39       3.553     138.557     0.09
timer:  vmat             39      40.083    1563.235     0.97
timer:  MolMec            2       0.000       0.000     0.00
timer:  diagon           38    4137.494  157224.783    97.35
timer:  c-eigval       8899       6.761   60162.126    37.25
timer:  c-buildHS      8899       0.136    1206.971     0.75
timer:  cdiag         17677       6.912  122176.634    75.65
timer:  cdiag1        17677       0.434    7672.316     4.75
timer:  cdiag2        17677       1.917   33893.212    20.98
timer:  cdiag3        17677       3.984   70418.662    43.60
timer:  cdiag4        17677       0.209    3694.531     2.29
timer:  c-eigvec       8778       7.275   63861.666    39.54
timer:  c-buildD       8778       3.870   33968.066    21.03
timer:  DHSCF4            1      29.211      29.211     0.02
timer:  dfscf             1      27.406      27.406     0.02
timer:  overfsm           1       0.396       0.396     0.00
timer:  optical           1       5.125       5.125     0.00
  

elaps: ELAPSED times:
elaps:  Routine       Calls   Time/call    Tot.time        %
elaps:  siesta            1   20212.056   20212.056   100.00
elaps:  Setup             1       0.381       0.381     0.00
elaps:  bands             3      34.110     102.330     0.51
elaps:  writewave         1       0.002       0.002     0.00
elaps:  KSV_init          1       0.000       0.000     0.00
elaps:  IterMD            1   20108.668   20108.668    99.49
elaps:  hsparse           1       0.029       0.029     0.00
elaps:  overlap           1       0.970       0.970     0.00
elaps:  IterSCF          38     528.631   20087.960    99.39
elaps:  kinefsm           2       0.498       0.995     0.00
elaps:  nlefsm            2       2.328       4.657     0.02
elaps:  DHSCF            39      10.803     421.330     2.08
elaps:  DHSCF1            1       0.100       0.100     0.00
elaps:  DHSCF2            1       4.090       4.090     0.02
elaps:  REORD           314       0.001       0.425     0.00
elaps:  POISON           40       0.319      12.769     0.06
elaps:  DHSCF3           39      10.495     409.298     2.03
elaps:  rhoofd           39       4.534     176.844     0.87
elaps:  cellXC           39       0.444      17.315     0.09
elaps:  vmat             39       5.013     195.496     0.97
elaps:  MolMec            2       0.000       0.000     0.00
elaps:  diagon           38     517.800   19676.405    97.35
elaps:  c-eigval       8899       0.846    7527.541    37.24
elaps:  c-buildHS      8899       0.018     163.573     0.81
elaps:  cdiag         17677       0.854   15098.772    74.70
elaps:  cdiag1        17677       0.054     952.500     4.71
elaps:  cdiag2        17677       0.240    4241.333    20.98
elaps:  cdiag3        17677       0.499    8822.820    43.65
elaps:  cdiag4        17677       0.027     468.712     2.32
elaps:  c-eigvec       8778       0.893    7836.024    38.77
elaps:  c-buildD       8778       0.502    4407.265    21.81
elaps:  DHSCF4            1       7.541       7.541     0.04
elaps:  dfscf             1       7.155       7.155     0.04
elaps:  overfsm           1       0.051       0.051     0.00
elaps:  optical           1       0.000       0.000     0.00
  
>> End of run:  26-APR-2016  16:00:21
