Siesta Version:                                        siesta-3.2-pl-3
Architecture  : x86_64-unknown-linux-gnu--unknown
Compiler flags: mpiifort -g -O2 -fPIC -xSSE4.1 -fp-model source -shared-intel 
PARALLEL version

* Running on    8 nodes in parallel
>> Start of run:  25-APR-2016   6:28:44

                           ***********************       
                           *  WELCOME TO SIESTA  *       
                           ***********************       

reinit: Reading from standard input
************************** Dump of input data file ****************************
#(1) General system descriptors
SystemName            GRP_doping    # Descriptive name of the system
SystemLabel           GRP_doping    # Short name for naming files
%include STRUCT.fdf
%include KPT.fdf
%include BASIS.fdf
#%include TS.fdf # for transiesta calculation
#(4) DFT, Grid, SCF
XC.functional         GGA           # LDA or GGA (default = LDA)
XC.authors            PBE           # CA (Ceperley-Aldr) = PZ
                                    #    (Perdew-Zunger) - LDA - Default
                                    # PW92 (Perdew-Wang-92) - LDA
                                    # PBE (Perdew-Burke-Ernzerhof) - GGA
MeshCutoff            200.000000    Ry      # Default: 50.0 Ry ~ 0.444 Bohr
                                    #         100.0 Ry ~ 0.314 Bohr
MaxSCFIterations      500           # Default: 50
DM.MixingWeight       0.05          # Default: 0.25
DM.NumberPulay        10            # Default: 0
DM.PulayOnFile        F             # SystemLabel.P1, SystemLabel.P2
DM.Tolerance          1.d-4         # Default: 1.d-4
DM.UseSaveDM          .true.        # because of the bug
SCFMustConverge       .true.
NeglNonOverlapInt     F             # Default: F
#(5) Eigenvalue problem: order-N or diagonalization
SolutionMethod        Diagon        # or Transiesta
ElectronicTemperature 300.0 K       # Default: 300.0 K
#(6) Molecular dynamics and relaxations
#MD.TypeOfRun          CG            # Type of dynamics:
#MD.VariableCell       F
#MD.NumCGsteps         0           # 0 for single-point / 100 for gopt
#MD.MaxCGDispl         0.2 Bohr      # Default: 0.2 Bohr
#MD.MaxForceTol        0.02 eV/Ang   # Default: 0.04 eV/Ang
#MD.MaxStressTol       1.0 GPa       # Default: 1.0 GPa
# Geometry Constraints
#%block GeometryConstraints
#	position from 1 to 44
#%endblock GeometryConstraints
BandLinesScale   pi/a
%block BandLines
 1   0.00000000  0.00000000  0.00000000
50   0.00000000  0.07809418  0.00000000
50   0.04509075  0.07809242  0.00000000
20   0.00000000  0.00000000  0.00000000
%endblock BandLines
************************** End of input data file *****************************

reinit: -----------------------------------------------------------------------
reinit: System Name: GRP_doping
reinit: -----------------------------------------------------------------------
reinit: System Label: GRP_doping                                                  
reinit: -----------------------------------------------------------------------

initatom: Reading input for the pseudopotentials and atomic orbitals ----------
 Species number:            1  Label: B Atomic number:           5
 Species number:            2  Label: C Atomic number:           6
Ground state valence configuration:   2s02  2p01
Reading pseudopotential information in formatted form from B.psf

Valence configuration for pseudopotential generation:
2s( 2.00) rc: 1.74
2p( 1.00) rc: 1.74
3d( 0.00) rc: 1.74
4f( 0.00) rc: 1.74
Ground state valence configuration:   2s02  2p02
Reading pseudopotential information in formatted form from C.psf

Valence configuration for pseudopotential generation:
2s( 2.00) rc: 1.54
2p( 2.00) rc: 1.54
3d( 0.00) rc: 1.54
4f( 0.00) rc: 1.54
For B, standard SIESTA heuristics set lmxkb to 3
 (one more than the basis l, including polarization orbitals).
Use PS.lmax or PS.KBprojectors blocks to override.
For C, standard SIESTA heuristics set lmxkb to 3
 (one more than the basis l, including polarization orbitals).
Use PS.lmax or PS.KBprojectors blocks to override.

<basis_specs>
===============================================================================
B                    Z=   5    Mass=  10.810        Charge= 0.17977+309
Lmxo=1 Lmxkb= 3    BasisType=split      Semic=F
L=0  Nsemic=0  Cnfigmx=2
          n=1  nzeta=2  polorb=0
            splnorm:   0.15000    
               vcte:    0.0000    
               rinn:    0.0000    
                rcs:    0.0000      0.0000    
            lambdas:    1.0000      1.0000    
L=1  Nsemic=0  Cnfigmx=2
          n=1  nzeta=2  polorb=1
            splnorm:   0.15000    
               vcte:    0.0000    
               rinn:    0.0000    
                rcs:    0.0000      0.0000    
            lambdas:    1.0000      1.0000    
-------------------------------------------------------------------------------
L=0  Nkbl=1  erefs: 0.17977+309
L=1  Nkbl=1  erefs: 0.17977+309
L=2  Nkbl=1  erefs: 0.17977+309
L=3  Nkbl=1  erefs: 0.17977+309
===============================================================================
</basis_specs>

atom: Called for B                     (Z =   5)

read_vps: Pseudopotential generation method:
read_vps: ATM3      Troullier-Martins                       
Total valence charge:    3.00000

read_vps: Pseudopotential includes a core correction:
read_vps: Pseudo-core for xc-correction

xc_check: Exchange-correlation functional:
xc_check: GGA Perdew, Burke & Ernzerhof 1996
V l=0 = -2*Zval/r beyond r=  1.7165
V l=1 = -2*Zval/r beyond r=  1.7165
V l=2 = -2*Zval/r beyond r=  1.7165
V l=3 = -2*Zval/r beyond r=  1.6951
All V_l potentials equal beyond r=  1.7165
This should be close to max(r_c) in ps generation
All pots = -2*Zval/r beyond r=  1.7165

VLOCAL1: 99.0% of the norm of Vloc inside     14.733 Ry
VLOCAL1: 99.9% of the norm of Vloc inside     33.577 Ry
atom: Maximum radius for 4*pi*r*r*local-pseudopot. charge    2.04484
atom: Maximum radius for r*vlocal+2*Zval:    1.75994
GHOST: No ghost state for L =  0
GHOST: No ghost state for L =  1
GHOST: No ghost state for L =  2
GHOST: No ghost state for L =  3

KBgen: Kleinman-Bylander projectors: 
   l= 0   rc=  1.897051   el= -0.693730   Ekb=  4.595746   kbcos=  0.286105
   l= 1   rc=  1.920920   el= -0.265236   Ekb= -2.350715   kbcos= -0.315747
   l= 2   rc=  2.044840   el=  0.002055   Ekb= -0.690767   kbcos= -0.013822
   l= 3   rc=  2.149707   el=  0.003188   Ekb= -0.315358   kbcos= -0.002055

KBgen: Total number of  Kleinman-Bylander projectors:   16
atom: -------------------------------------------------------------------------

atom: SANKEY-TYPE ORBITALS:
atom: Selected multiple-zeta basis: split     

SPLIT: Orbitals with angular momentum L= 0

SPLIT: Basis orbitals for state 2s

SPLIT: PAO cut-off radius determined from an
SPLIT: energy shift=  0.007350 Ry

   izeta = 1
                 lambda =    1.000000
                     rc =    5.422032
                 energy =   -0.686029
                kinetic =    0.576707
    potential(screened) =   -1.262736
       potential(ionic) =   -3.271094

   izeta = 2
                 rmatch =    4.222573
              splitnorm =    0.150000
                 energy =   -0.602132
                kinetic =    0.858975
    potential(screened) =   -1.461107
       potential(ionic) =   -3.582536

SPLIT: Orbitals with angular momentum L= 1

SPLIT: Basis orbitals for state 2p

SPLIT: PAO cut-off radius determined from an
SPLIT: energy shift=  0.007350 Ry

   izeta = 1
                 lambda =    1.000000
                     rc =    6.790259
                 energy =   -0.258578
                kinetic =    1.481412
    potential(screened) =   -1.739989
       potential(ionic) =   -3.657461

   izeta = 2
                 rmatch =    4.608740
              splitnorm =    0.150000
                 energy =   -0.173757
                kinetic =    2.186690
    potential(screened) =   -2.360447
       potential(ionic) =   -4.464260

POLgen: Perturbative polarization orbital with L=  2

POLgen: Polarization orbital for state 2p

   izeta = 1
                     rc =    6.790259
                 energy =    0.684082
                kinetic =    1.471481
    potential(screened) =   -0.787399
       potential(ionic) =   -2.406985
atom: Total number of Sankey-type orbitals: 13

atm_pop: Valence configuration (for local Pseudopot. screening):
 2s( 2.00)                                                            
 2p( 1.00)                                                            
Vna: chval, zval:    3.00000   3.00000

Vna:  Cut-off radius for the neutral-atom potential:   6.790259
comcore: Pseudo-core radius Rcore=  2.122997

atom: _________________________________________________________________________

<basis_specs>
===============================================================================
C                    Z=   6    Mass=  12.010        Charge= 0.17977+309
Lmxo=1 Lmxkb= 3    BasisType=split      Semic=F
L=0  Nsemic=0  Cnfigmx=2
          n=1  nzeta=2  polorb=0
            splnorm:   0.15000    
               vcte:    0.0000    
               rinn:    0.0000    
                rcs:    0.0000      0.0000    
            lambdas:    1.0000      1.0000    
L=1  Nsemic=0  Cnfigmx=2
          n=1  nzeta=2  polorb=1
            splnorm:   0.15000    
               vcte:    0.0000    
               rinn:    0.0000    
                rcs:    0.0000      0.0000    
            lambdas:    1.0000      1.0000    
-------------------------------------------------------------------------------
L=0  Nkbl=1  erefs: 0.17977+309
L=1  Nkbl=1  erefs: 0.17977+309
L=2  Nkbl=1  erefs: 0.17977+309
L=3  Nkbl=1  erefs: 0.17977+309
===============================================================================
</basis_specs>

atom: Called for C                     (Z =   6)

read_vps: Pseudopotential generation method:
read_vps: ATM3      Troullier-Martins                       
Total valence charge:    4.00000

read_vps: Pseudopotential includes a core correction:
read_vps: Pseudo-core for xc-correction

xc_check: Exchange-correlation functional:
xc_check: GGA Perdew, Burke & Ernzerhof 1996
V l=0 = -2*Zval/r beyond r=  1.5227
V l=1 = -2*Zval/r beyond r=  1.5227
V l=2 = -2*Zval/r beyond r=  1.5227
V l=3 = -2*Zval/r beyond r=  1.5038
All V_l potentials equal beyond r=  1.5227
This should be close to max(r_c) in ps generation
All pots = -2*Zval/r beyond r=  1.5227

VLOCAL1: 99.0% of the norm of Vloc inside     18.722 Ry
VLOCAL1: 99.9% of the norm of Vloc inside     42.668 Ry
atom: Maximum radius for 4*pi*r*r*local-pseudopot. charge    1.83678
atom: Maximum radius for r*vlocal+2*Zval:    1.58088
GHOST: No ghost state for L =  0
GHOST: No ghost state for L =  1
GHOST: No ghost state for L =  2
GHOST: No ghost state for L =  3

KBgen: Kleinman-Bylander projectors: 
   l= 0   rc=  1.704034   el= -1.009801   Ekb=  5.335044   kbcos=  0.316824
   l= 1   rc=  1.704034   el= -0.388707   Ekb= -3.785862   kbcos= -0.366464
   l= 2   rc=  1.791422   el=  0.001971   Ekb= -0.970471   kbcos= -0.009212
   l= 3   rc=  1.859892   el=  0.003065   Ekb= -0.399525   kbcos= -0.001223

KBgen: Total number of  Kleinman-Bylander projectors:   16
atom: -------------------------------------------------------------------------

atom: SANKEY-TYPE ORBITALS:
atom: Selected multiple-zeta basis: split     

SPLIT: Orbitals with angular momentum L= 0

SPLIT: Basis orbitals for state 2s

SPLIT: PAO cut-off radius determined from an
SPLIT: energy shift=  0.007350 Ry

   izeta = 1
                 lambda =    1.000000
                     rc =    4.632753
                 energy =   -1.002270
                kinetic =    0.855760
    potential(screened) =   -1.858031
       potential(ionic) =   -5.417575

   izeta = 2
                 rmatch =    3.431921
              splitnorm =    0.150000
                 energy =   -0.867111
                kinetic =    1.300804
    potential(screened) =   -2.167915
       potential(ionic) =   -5.962684

SPLIT: Orbitals with angular momentum L= 1

SPLIT: Basis orbitals for state 2p

SPLIT: PAO cut-off radius determined from an
SPLIT: energy shift=  0.007350 Ry

   izeta = 1
                 lambda =    1.000000
                     rc =    5.658549
                 energy =   -0.381140
                kinetic =    2.399701
    potential(screened) =   -2.780841
       potential(ionic) =   -6.206085

   izeta = 2
                 rmatch =    3.653288
              splitnorm =    0.150000
                 energy =   -0.249149
                kinetic =    3.542762
    potential(screened) =   -3.791911
       potential(ionic) =   -7.581078

POLgen: Perturbative polarization orbital with L=  2

POLgen: Polarization orbital for state 2p

   izeta = 1
                     rc =    5.658549
                 energy =    1.109913
                kinetic =    2.304789
    potential(screened) =   -1.194876
       potential(ionic) =   -4.013592
atom: Total number of Sankey-type orbitals: 13

atm_pop: Valence configuration (for local Pseudopot. screening):
 2s( 2.00)                                                            
 2p( 2.00)                                                            
Vna: chval, zval:    4.00000   4.00000

Vna:  Cut-off radius for the neutral-atom potential:   5.658549
comcore: Pseudo-core radius Rcore=  1.791422

atom: _________________________________________________________________________

prinput: Basis input ----------------------------------------------------------

PAO.BasisType split     

%block ChemicalSpeciesLabel
    1    5 B                       # Species index, atomic number, species label
    2    6 C                       # Species index, atomic number, species label
%endblock ChemicalSpeciesLabel

%block PAO.Basis                 # Define Basis set
B                     2                    # Species label, number of l-shells
 n=2   0   2                         # n, l, Nzeta 
   5.422      4.223   
   1.000      1.000   
 n=2   1   2 P   1                   # n, l, Nzeta, Polarization, NzetaPol
   6.790      4.609   
   1.000      1.000   
C                     2                    # Species label, number of l-shells
 n=2   0   2                         # n, l, Nzeta 
   4.633      3.432   
   1.000      1.000   
 n=2   1   2 P   1                   # n, l, Nzeta, Polarization, NzetaPol
   5.659      3.653   
   1.000      1.000   
%endblock PAO.Basis

prinput: ----------------------------------------------------------------------

coor:   Atomic-coordinates input format  =     Fractional

siesta: Atomic coordinates (Bohr) and species
siesta:      2.30256  38.89134   0.00000  1        1
siesta:      4.63094  34.85847   0.00000  1        2
siesta:      4.63094  37.54693   0.00000  1        3
siesta:      6.95932  30.82560   0.00000  1        4
siesta:      6.95932  33.51406   0.00000  1        5
siesta:      9.28770  26.79272   0.00000  1        6
siesta:      6.95932  22.75985   0.00000  1        7
siesta:      6.95932  25.44831   0.00000  1        8
siesta:     -0.02582  18.72698   0.00000  1        9
siesta:     -0.02582  21.41544   0.00000  1       10
siesta:      2.30256  22.75985   0.00000  1       11
siesta:     -4.68258  21.41544   0.00000  1       12
siesta:     -2.35420  22.75985   0.00000  1       13
siesta:     -7.01096  22.75985   0.00000  1       14
siesta:     -7.01096  25.44831   0.00000  1       15
siesta:      4.63094  26.79272   0.00000  1       16
siesta:     -4.68258  26.79272   0.00000  1       17
siesta:     -4.68258  29.48119   0.00000  1       18
siesta:     -2.35420  30.82560   0.00000  1       19
siesta:     -2.35420  33.51406   0.00000  1       20
siesta:     -0.02582  34.85847   0.00000  1       21
siesta:     -0.02582  37.54693   0.00000  1       22
siesta:     -0.02582   2.59549   0.00000  2       23
siesta:     -0.02582   5.28395   0.00000  2       24
siesta:     -2.35420  38.89134   0.00000  2       25
siesta:     -2.35420  41.57980   0.00000  2       26
siesta:      2.30256  41.57980   0.00000  2       27
siesta:      9.28770  29.48119   0.00000  2       28
siesta:     -4.68258  34.85847   0.00000  2       29
siesta:     -4.68258  37.54693   0.00000  2       30
siesta:      2.30256   6.62836   0.00000  2       31
siesta:      2.30256   9.31683   0.00000  2       32
siesta:      4.63094  10.66124   0.00000  2       33
siesta:      4.63094  13.34970   0.00000  2       34
siesta:      6.95932  14.69411   0.00000  2       35
siesta:      6.95932  17.38257   0.00000  2       36
siesta:      9.28770  18.72698   0.00000  2       37
siesta:      9.28770  21.41544   0.00000  2       38
siesta:     11.61608  22.75985   0.00000  2       39
siesta:     11.61608  25.44831   0.00000  2       40
siesta:     -2.35420   6.62836   0.00000  2       41
siesta:     -2.35420   9.31683   0.00000  2       42
siesta:     -0.02582  10.66124   0.00000  2       43
siesta:     -0.02582  13.34970   0.00000  2       44
siesta:      2.30256  14.69411   0.00000  2       45
siesta:      2.30256  17.38257   0.00000  2       46
siesta:      4.63094  18.72698   0.00000  2       47
siesta:      4.63094  21.41544   0.00000  2       48
siesta:     -4.68258  10.66124   0.00000  2       49
siesta:     -4.68258  13.34970   0.00000  2       50
siesta:     -2.35420  14.69411   0.00000  2       51
siesta:     -2.35420  17.38257   0.00000  2       52
siesta:      2.30256  25.44831   0.00000  2       53
siesta:     -7.01096  14.69411   0.00000  2       54
siesta:     -7.01096  17.38257   0.00000  2       55
siesta:     -4.68258  18.72698   0.00000  2       56
siesta:     -2.35420  25.44831   0.00000  2       57
siesta:     -9.33934  18.72698   0.00000  2       58
siesta:     -9.33934  21.41544   0.00000  2       59
siesta:    -11.66772  22.75985   0.00000  2       60
siesta:    -11.66772  25.44831   0.00000  2       61
siesta:     -9.33934  26.79272   0.00000  2       62
siesta:     -9.33934  29.48119   0.00000  2       63
siesta:      4.63094  29.48119   0.00000  2       64
siesta:     -0.02582  26.79272   0.00000  2       65
siesta:     -0.02582  29.48119   0.00000  2       66
siesta:      2.30256  30.82560   0.00000  2       67
siesta:      2.30256  33.51406   0.00000  2       68
siesta:     -7.01096  30.82560   0.00000  2       69
siesta:     -7.01096  33.51406   0.00000  2       70
siesta:     -0.02582  42.92421   0.00000  2       71
siesta:     -0.02582  45.61267   0.00000  2       72

siesta: System type = slab      

initatomlists: Number of atoms, orbitals, and projectors:     72   936  1152

siesta: ******************** Simulation parameters ****************************
siesta:
siesta: The following are some of the parameters of the simulation.
siesta: A complete list of the parameters used, including default values,
siesta: can be found in file out.fdf
siesta:
redata: Non-Collinear-spin run           =     F
redata: SpinPolarized (Up/Down) run      =     F
redata: Number of spin components        =     1
redata: Long output                      =     F
redata: Number of Atomic Species         =        2
redata: Charge density info will appear in .RHO file
redata: Write Mulliken Pop.              =     NO
redata: Mesh Cutoff                      =   200.0000  Ry
redata: Net charge of the system         =     0.0000 |e|
redata: Max. number of SCF Iter          =      500
redata: SCF convergence failure will abort job
redata: Performing Pulay mixing using    =    10 iterations
redata: Mix DM in first SCF step ?       =     F
redata: Write Pulay info on disk?        =     F
redata: Discard 1st Pulay DM after  kick =     F
redata: New DM Mixing Weight             =     0.0500
redata: New DM Occupancy tolerance       = 0.000000000001
redata: No kicks to SCF
redata: DM Mixing Weight for Kicks       =     0.5000
redata: DM Tolerance for SCF             =     0.000100
redata: Require Energy convergence for SCF =     F
redata: DM Energy tolerance for SCF      =     0.000100 eV
redata: Require Harris convergence for SCF =     F
redata: DM Harris energy tolerance for SCF =     0.000100 eV
redata: Using Saved Data (generic)   =     F
redata: Use continuation files for DM    =     T
redata: Neglect nonoverlap interactions  =     F
redata: Method of Calculation            =     Diagonalization
redata: Divide and Conquer               =     T
redata: Electronic Temperature           =     0.0019  Ry
redata: Fix the spin of the system       =     F
redata: Dynamics option                  =     Verlet MD run
redata: Initial MD time step             =        1
redata:   Final MD time step             =        1
redata: Length of MD time step           =     1.0000  fs
redata: Initial Temperature of MD run    =     0.0000  K
redata: Perform a MD quench              =     F
redata: ***********************************************************************
Total number of electrons:   266.000000
Total ionic charge:   266.000000

* ProcessorY, Blocksize:    2  24

k-point displ. along   1 input, could be:     0.50    0.00
k-point displ. along   2 input, could be:     0.50    0.00
 Kpoints in:          231 . Kpoints trimmed:          231

siesta: k-grid: Number of k-points =   231
siesta: k-grid: Cutoff (effective) =     5.000 Ang
siesta: k-grid: Supercell and displacements
siesta: k-grid:   21   0   0      0.500
siesta: k-grid:    0  21   0      0.500
siesta: k-grid:    0   0   1      0.000
Naive supercell factors:     2    2    2

superc: Internal auxiliary supercell:     2 x     2 x     2  =       8
superc: Number of atoms, orbitals, and projectors:    576   7488   9216

* Maximum dynamic memory allocated =     4 MB

siesta:                 ==============================
                            Begin MD step =      1
                        ==============================

superc: Internal auxiliary supercell:     2 x     2 x     2  =       8
superc: Number of atoms, orbitals, and projectors:    576   7488   9216

outcell: Unit cell vectors (Ang):
       12.804619    7.392750    0.000000
        0.000000   14.785500    0.000000
        0.000000    0.000000   10.000000

outcell: Cell vector modules (Ang)   :   14.785500   14.785500   10.000000
outcell: Cell angles (23,13,12) (deg):     90.0000     90.0000     60.0000
outcell: Cell volume (Ang**3)        :   1893.2269
New_DM. Step:     1
Initializing Density Matrix...

InitMesh: MESH =   120 x   120 x    90 =     1296000
InitMesh: Mesh cutoff (required, used) =   200.000   223.865 Ry

* Maximum dynamic memory allocated =   227 MB

stepf: Fermi-Dirac step function

siesta: Program's energy decomposition (eV):
siesta: Ebs     =     -5497.813953
siesta: Eions   =     15585.763425
siesta: Ena     =      4194.677170
siesta: Ekin    =      5217.942150
siesta: Enl     =       827.495072
siesta: DEna    =        -0.000007
siesta: DUscf   =         0.000000
siesta: DUext   =         0.000000
siesta: Exc     =     -4202.647908
siesta: eta*DQ  =         0.000000
siesta: Emadel  =         0.000000
siesta: Emeta   =         0.000000
siesta: Emolmec =         0.000000
siesta: Ekinion =         0.000000
siesta: Eharris =     -9311.616598
siesta: Etot    =     -9548.296947
siesta: FreeEng =     -9548.296947

siesta: iscf   Eharris(eV)      E_KS(eV)   FreeEng(eV)   dDmax  Ef(eV)
siesta:    1    -9311.6166    -9548.2969    -9548.2969  7.2455 -8.5408
timer: Routine,Calls,Time,% = IterSCF        1    4703.221  99.75
elaps: Routine,Calls,Wall,% = IterSCF        1     588.700  99.75
siesta:    2   -14559.9171    -8452.0656    -8452.0977 19.1795 -3.5522
siesta:    3    -9271.9334    -9412.3598    -9412.3754  3.1017 -7.1364
siesta:    4    -9237.2851    -9305.7435    -9305.7519  1.6214 -6.0797
siesta:    5    -9193.7040    -9205.9974    -9206.0767  1.2359 -5.3910
siesta:    6    -9168.7802    -9170.7097    -9170.7136  1.1547 -5.3276
siesta:    7    -9158.5616    -9146.4736    -9146.5278  0.9161 -5.3321
siesta:    8    -9156.2724    -9143.3087    -9143.3578  0.8998 -5.3465
siesta:    9    -9155.2276    -9141.2028    -9141.2754  0.8528 -5.4044
siesta:   10    -9154.3041    -9134.0119    -9134.0689  0.6445 -5.4170
siesta:   11    -9153.1974    -9128.3338    -9128.3939  0.4531 -5.3887
siesta:   12    -9153.3304    -9123.2892    -9123.3247  0.2805 -5.3472
siesta:   13    -9152.6131    -9123.6470    -9123.7061  0.2907 -5.2878
siesta:   14    -9152.2455    -9125.4925    -9125.5591  0.2148 -5.2889
siesta:   15    -9151.7357    -9131.3003    -9131.3639  0.1621 -5.3176
siesta:   16    -9151.5716    -9138.4268    -9138.5004  0.0968 -5.3644
siesta:   17    -9151.5051    -9141.1699    -9141.2334  0.0684 -5.3699
siesta:   18    -9151.4853    -9144.3514    -9144.4223  0.0805 -5.3700
siesta:   19    -9151.4435    -9146.6383    -9146.7049  0.0268 -5.3774
siesta:   20    -9151.4302    -9148.3718    -9148.4439  0.0236 -5.3715
siesta:   21    -9151.4238    -9149.5021    -9149.5736  0.0152 -5.3707
siesta:   22    -9151.4194    -9150.4369    -9150.5084  0.0208 -5.3663
siesta:   23    -9151.4181    -9151.1297    -9151.2016  0.0100 -5.3638
siesta:   24    -9151.4150    -9151.4541    -9151.5257  0.0073 -5.3593
siesta:   25    -9151.4149    -9151.5010    -9151.5737  0.0053 -5.3569
siesta:   26    -9151.4145    -9151.6267    -9151.6986  0.0042 -5.3567
siesta:   27    -9151.4143    -9151.5333    -9151.6052  0.0037 -5.3567
siesta:   28    -9151.4142    -9151.5544    -9151.6262  0.0038 -5.3571
siesta:   29    -9151.4143    -9151.5582    -9151.6301  0.0016 -5.3577
siesta:   30    -9151.4143    -9151.5295    -9151.6013  0.0008 -5.3581
siesta:   31    -9151.4143    -9151.4898    -9151.5617  0.0005 -5.3582
siesta:   32    -9151.4142    -9151.4655    -9151.5374  0.0006 -5.3582
siesta:   33    -9151.4142    -9151.4481    -9151.5200  0.0003 -5.3583
siesta:   34    -9151.4142    -9151.4327    -9151.5046  0.0004 -5.3583
siesta:   35    -9151.4143    -9151.4204    -9151.4923  0.0002 -5.3583
siesta:   36    -9151.4143    -9151.4205    -9151.4924  0.0002 -5.3582
siesta:   37    -9151.4143    -9151.4191    -9151.4910  0.0001 -5.3582
siesta:   38    -9151.4143    -9151.4183    -9151.4902  0.0000 -5.3581

siesta: E_KS(eV) =            -9151.4153

siesta: E_KS - E_eggbox =     -9151.4153

siesta: Atomic forces (eV/Ang):
----------------------------------------
   Tot   -0.032285    0.065238    0.000000
----------------------------------------
   Max  563.824584
   Res  143.738735    sqrt( Sum f_i^2 / 3N )
----------------------------------------
   Max  563.824584    constrained

Stress-tensor-Voigt (kbar):     -775.75    -2646.91       -0.68       -1.17        0.00        0.00
(Free)E + p*V (eV/cell)    -7803.0957
Target enthalpy (eV/cell)    -9151.4871

siesta: Stress tensor (static) (eV/Ang**3):
        -0.484180   -0.000732    0.000000
        -0.000732   -1.652054    0.000000
         0.000000    0.000000   -0.000422

siesta: Pressure (static):       1141.11234971  kBar

siesta: Stress tensor (total) (eV/Ang**3):
        -0.484180   -0.000732    0.000000
        -0.000732   -1.652054    0.000000
         0.000000    0.000000   -0.000422

siesta: Pressure (total):       1141.11234971  kBar

siesta: Temp_ion =       0.000 K

* Maximum dynamic memory allocated =   243 MB
Computing bands...

siesta: Program's energy decomposition (eV):
siesta: Ebs     =     -4111.108108
siesta: Eions   =     15585.763425
siesta: Ena     =      4194.677170
siesta: Ekin    =      8064.157104
siesta: Enl     =      -779.496465
siesta: DEna    =      -779.147080
siesta: DUscf   =       105.294207
siesta: DUext   =         0.000000
siesta: Exc     =     -4371.136790
siesta: eta*DQ  =         0.000000
siesta: Emadel  =         0.000000
siesta: Emeta   =         0.000000
siesta: Emolmec =         0.000000
siesta: Ekinion =         0.000000
siesta: Eharris =     -9151.414258
siesta: Etot    =     -9151.415278
siesta: FreeEng =     -9151.487135

siesta: Final energy (eV):
siesta:  Band Struct. =   -4111.108108
siesta:       Kinetic =    8064.157104
siesta:       Hartree =   26171.540673
siesta:    Ext. field =       0.000000
siesta:   Exch.-corr. =   -4371.136790
siesta:  Ion-electron =  -60117.846423
siesta:       Ion-ion =   21101.870159
siesta:       Ekinion =       0.000000
siesta:         Total =   -9151.415278

siesta: Atomic forces (eV/Ang):
siesta:      1   -4.506839  104.963199    0.000000
siesta:      2   17.270066    1.918593    0.000000
siesta:      3   18.137658 -391.024489    0.000000
siesta:      4    4.319023   -1.466374    0.000000
siesta:      5    2.729731    4.383906    0.000000
siesta:      6    9.194927    4.552460    0.000000
siesta:      7   -1.063075   -4.414630    0.000000
siesta:      8   -0.667707    1.152639    0.000000
siesta:      9    0.252918  410.421786    0.000000
siesta:     10   -0.785395   -3.612690    0.000000
siesta:     11    2.353617    2.793459    0.000000
siesta:     12    0.706299   -6.187901    0.000000
siesta:     13    0.438895    5.923263    0.000000
siesta:     14   -1.704956   -1.836223    0.000000
siesta:     15   -3.985809    3.059390    0.000000
siesta:     16   -3.654480    1.650902    0.000000
siesta:     17    4.563481   -3.681474    0.000000
siesta:     18   -1.283434    3.682775    0.000000
siesta:     19  -15.812752    2.223356    0.000000
siesta:     20  -17.406576 -396.692633    0.000000
siesta:     21   -3.356610  107.529752    0.000000
siesta:     22    6.436316 -385.347481    0.000000
siesta:     23    6.426507  549.806774    0.000000
siesta:     24   -8.043475 -131.645120    0.000000
siesta:     25    7.591039  115.777934    0.000000
siesta:     26  -12.314421 -548.735940    0.000000
siesta:     27   17.353791 -547.002279    0.000000
siesta:     28   -0.877213    0.336707    0.000000
siesta:     29  -24.863681    0.651586    0.000000
siesta:     30  -30.838280 -549.426814    0.000000
siesta:     31   19.639055  551.068154    0.000000
siesta:     32    6.113961 -130.431185    0.000000
siesta:     33   34.101219  398.009165    0.000000
siesta:     34   21.840709    0.331411    0.000000
siesta:     35   -2.562792   -2.323099    0.000000
siesta:     36    2.160505   -1.073819    0.000000
siesta:     37   -1.230957    0.188011    0.000000
siesta:     38    6.334095   -4.126430    0.000000
siesta:     39    0.377727    5.721255    0.000000
siesta:     40    2.707397   -8.404037    0.000000
siesta:     41  -19.942267  403.407912    0.000000
siesta:     42    2.220500 -123.681650    0.000000
siesta:     43   -0.777851  405.785126    0.000000
siesta:     44    2.566631 -125.425503    0.000000
siesta:     45   26.395522  563.824584    0.000000
siesta:     46   21.198382   -2.628972    0.000000
siesta:     47   -1.251972    1.695636    0.000000
siesta:     48    0.144027   -4.256755    0.000000
siesta:     49  -36.515118  550.577571    0.000000
siesta:     50  -26.763328   -4.668889    0.000000
siesta:     51  -26.869882  558.547748    0.000000
siesta:     52  -22.218833   -2.494836    0.000000
siesta:     53   -2.855473    3.188338    0.000000
siesta:     54    2.594432   -1.636803    0.000000
siesta:     55   -2.735843   -0.919728    0.000000
siesta:     56    1.853304   -2.366925    0.000000
siesta:     57    3.335575    3.828007    0.000000
siesta:     58    1.835249   -0.027301    0.000000
siesta:     59   -5.984496   -3.412298    0.000000
siesta:     60   -0.858129    5.185037    0.000000
siesta:     61    0.881462   -5.409848    0.000000
siesta:     62   -7.176331    3.497196    0.000000
siesta:     63    2.013686    0.250050    0.000000
siesta:     64   -5.468313    0.866882    0.000000
siesta:     65    0.283656   -1.796677    0.000000
siesta:     66   -5.792222 -559.977703    0.000000
siesta:     67   22.719345    7.106311    0.000000
siesta:     68   25.386113 -547.289752    0.000000
siesta:     69   -6.842006    2.264894    0.000000
siesta:     70    2.603249    1.507358    0.000000
siesta:     71    0.223470  123.594977    0.000000
siesta:     72   -0.325307 -407.782610    0.000000
siesta: ----------------------------------------
siesta:    Tot   -0.032285    0.065238    0.000000

siesta: Stress tensor (static) (eV/Ang**3):
siesta:    -0.484180   -0.000732    0.000000
siesta:    -0.000732   -1.652054    0.000000
siesta:     0.000000    0.000000   -0.000422

siesta: Cell volume =       1893.226884 Ang**3

siesta: Pressure (static):
siesta:                Solid            Molecule  Units
siesta:           0.00775697          0.10986188  Ry/Bohr**3
siesta:           0.71221861         10.08714418  eV/Ang**3
siesta:        1141.11234971      16161.56139550  kBar
(Free)E+ p_basis*V_orbitals  =       -9113.798543
(Free)Eharris+ p_basis*V_orbitals  =       -9113.794503

siesta: Electric dipole (a.u.)  =    0.000000    0.000000    0.000000
siesta: Electric dipole (Debye) =    0.000000    0.000000    0.000000

* Maximum dynamic memory allocated : Node    0 =   243 MB
* Maximum dynamic memory allocated : Node    1 =    85 MB
* Maximum dynamic memory allocated : Node    2 =    88 MB
* Maximum dynamic memory allocated : Node    3 =   230 MB
* Maximum dynamic memory allocated : Node    4 =   228 MB
* Maximum dynamic memory allocated : Node    5 =    83 MB
* Maximum dynamic memory allocated : Node    6 =    86 MB
* Maximum dynamic memory allocated : Node    7 =   210 MB

* Maximum memory occured during matrixMtoO                    

timer: CPU execution times:
timer:  Routine       Calls   Time/call    Tot.time        %
timer:  siesta            1  177524.233  177524.233   100.00
timer:  Setup             1       3.035       3.035     0.00
timer:  bands             3     272.048     816.143     0.46
timer:  writewave         1       0.019       0.019     0.00
timer:  KSV_init          1       0.002       0.002     0.00
timer:  IterMD            1  176699.205  176699.205    99.54
timer:  hsparse           1       0.396       0.396     0.00
timer:  overlap           1       7.786       7.786     0.00
timer:  IterSCF          38    4643.782  176463.708    99.40
timer:  kinefsm           2       4.041       8.081     0.00
timer:  nlefsm            2      21.661      43.323     0.02
timer:  DHSCF            39     127.305    4964.900     2.80
timer:  DHSCF1            1       1.008       1.008     0.00
timer:  DHSCF2            1      46.374      46.374     0.03
timer:  REORD           314       0.011       3.420     0.00
timer:  POISON           40       2.414      96.556     0.05
timer:  DHSCF3           39     124.907    4871.377     2.74
timer:  rhoofd           39      26.243    1023.480     0.58
timer:  cellXC           39       3.538     137.966     0.08
timer:  vmat             39      60.917    2375.764     1.34
timer:  MolMec            2       0.000       0.000     0.00
timer:  diagon           38    4515.240  171579.118    96.65
timer:  c-eigval       8899       6.754   60103.856    33.86
timer:  c-buildHS      8899       0.147    1309.878     0.74
timer:  cdiag         17677       6.961  123052.978    69.32
timer:  cdiag1        17677       0.430    7597.227     4.28
timer:  cdiag2        17677       1.917   33883.065    19.09
timer:  cdiag3        17677       3.971   70190.015    39.54
timer:  cdiag4        17677       0.229    4042.121     2.28
timer:  c-eigvec       8778       7.388   64848.743    36.53
timer:  c-buildD       8778       5.399   47393.863    26.70
timer:  DHSCF4            1      43.789      43.789     0.02
timer:  dfscf             1      41.084      41.084     0.02
timer:  overfsm           1       0.490       0.490     0.00
timer:  optical           1       5.105       5.105     0.00
  

elaps: ELAPSED times:
elaps:  Routine       Calls   Time/call    Tot.time        %
elaps:  siesta            1   22219.309   22219.309   100.00
elaps:  Setup             1       0.379       0.379     0.00
elaps:  bands             3      34.058     102.173     0.46
elaps:  writewave         1       0.002       0.002     0.00
elaps:  KSV_init          1       0.000       0.000     0.00
elaps:  IterMD            1   22116.084   22116.084    99.54
elaps:  hsparse           1       0.050       0.050     0.00
elaps:  overlap           1       0.978       0.978     0.00
elaps:  IterSCF          38     581.227   22086.621    99.40
elaps:  kinefsm           2       0.507       1.014     0.00
elaps:  nlefsm            2       2.796       5.593     0.03
elaps:  DHSCF            39      16.071     626.764     2.82
elaps:  DHSCF1            1       0.128       0.128     0.00
elaps:  DHSCF2            1       5.800       5.800     0.03
elaps:  REORD           314       0.001       0.448     0.00
elaps:  POISON           40       0.303      12.119     0.05
elaps:  DHSCF3           39      15.626     609.427     2.74
elaps:  rhoofd           39       7.048     274.889     1.24
elaps:  cellXC           39       0.442      17.222     0.08
elaps:  vmat             39       7.621     297.203     1.34
elaps:  MolMec            2       0.000       0.000     0.00
elaps:  diagon           38     565.169   21476.410    96.66
elaps:  c-eigval       8899       0.845    7520.279    33.85
elaps:  c-buildHS      8899       0.020     176.148     0.79
elaps:  cdiag         17677       0.857   15146.144    68.17
elaps:  cdiag1        17677       0.054     950.137     4.28
elaps:  cdiag2        17677       0.240    4239.675    19.08
elaps:  cdiag3        17677       0.498    8795.193    39.58
elaps:  cdiag4        17677       0.029     510.088     2.30
elaps:  c-eigvec       8778       0.901    7909.784    35.60
elaps:  c-buildD       8778       0.700    6141.031    27.64
elaps:  DHSCF4            1      11.088      11.088     0.05
elaps:  dfscf             1      10.557      10.557     0.05
elaps:  overfsm           1       0.061       0.061     0.00
elaps:  optical           1       0.000       0.000     0.00
  
>> End of run:  25-APR-2016  12:39:03
