Siesta Version:                                        siesta-3.2-pl-3
Architecture  : x86_64-unknown-linux-gnu--unknown
Compiler flags: mpiifort -g -O2 -fPIC -xSSE4.1 -fp-model source -shared-intel 
PARALLEL version

* Running on   12 nodes in parallel
>> Start of run:   4-MAY-2016   2:44:45

                           ***********************       
                           *  WELCOME TO SIESTA  *       
                           ***********************       

reinit: Reading from standard input
************************** Dump of input data file ****************************
#(1) General system descriptors
SystemName            GRP_doping    # Descriptive name of the system
SystemLabel           GRP_doping    # Short name for naming files
%include STRUCT.fdf
%include KPT.fdf
%include BASIS.fdf
#%include TS.fdf # for transiesta calculation
#(4) DFT, Grid, SCF
XC.functional         GGA           # LDA or GGA (default = LDA)
XC.authors            PBE           # CA (Ceperley-Aldr) = PZ
                                    #    (Perdew-Zunger) - LDA - Default
                                    # PW92 (Perdew-Wang-92) - LDA
                                    # PBE (Perdew-Burke-Ernzerhof) - GGA
MeshCutoff            200.000000    Ry      # Default: 50.0 Ry ~ 0.444 Bohr
                                    #         100.0 Ry ~ 0.314 Bohr
MaxSCFIterations      500           # Default: 50
DM.MixingWeight       0.05          # Default: 0.25
DM.NumberPulay        10            # Default: 0
DM.PulayOnFile        F             # SystemLabel.P1, SystemLabel.P2
DM.Tolerance          1.d-4         # Default: 1.d-4
DM.UseSaveDM          .true.        # because of the bug
SCFMustConverge       .true.
NeglNonOverlapInt     F             # Default: F
#(5) Eigenvalue problem: order-N or diagonalization
SolutionMethod        Diagon        # or Transiesta
ElectronicTemperature 300.0 K       # Default: 300.0 K
#(6) Molecular dynamics and relaxations
#MD.TypeOfRun          CG            # Type of dynamics:
#MD.VariableCell       F
#MD.NumCGsteps         0           # 0 for single-point / 100 for gopt
#MD.MaxCGDispl         0.2 Bohr      # Default: 0.2 Bohr
#MD.MaxForceTol        0.02 eV/Ang   # Default: 0.04 eV/Ang
#MD.MaxStressTol       1.0 GPa       # Default: 1.0 GPa
# Geometry Constraints
#%block GeometryConstraints
#	position from 1 to 44
#%endblock GeometryConstraints
BandLinesScale   pi/a
%block BandLines
 1   0.00000000  0.00000000  0.00000000
50   0.00000000  0.07809418  0.00000000
50   0.04509075  0.07809242  0.00000000
20   0.00000000  0.00000000  0.00000000
%endblock BandLines
************************** End of input data file *****************************

reinit: -----------------------------------------------------------------------
reinit: System Name: GRP_doping
reinit: -----------------------------------------------------------------------
reinit: System Label: GRP_doping                                                  
reinit: -----------------------------------------------------------------------

initatom: Reading input for the pseudopotentials and atomic orbitals ----------
 Species number:            1  Label: B Atomic number:           5
 Species number:            2  Label: C Atomic number:           6
Ground state valence configuration:   2s02  2p01
Reading pseudopotential information in formatted form from B.psf

Valence configuration for pseudopotential generation:
2s( 2.00) rc: 1.74
2p( 1.00) rc: 1.74
3d( 0.00) rc: 1.74
4f( 0.00) rc: 1.74
Ground state valence configuration:   2s02  2p02
Reading pseudopotential information in formatted form from C.psf

Valence configuration for pseudopotential generation:
2s( 2.00) rc: 1.54
2p( 2.00) rc: 1.54
3d( 0.00) rc: 1.54
4f( 0.00) rc: 1.54
For B, standard SIESTA heuristics set lmxkb to 3
 (one more than the basis l, including polarization orbitals).
Use PS.lmax or PS.KBprojectors blocks to override.
For C, standard SIESTA heuristics set lmxkb to 3
 (one more than the basis l, including polarization orbitals).
Use PS.lmax or PS.KBprojectors blocks to override.

<basis_specs>
===============================================================================
B                    Z=   5    Mass=  10.810        Charge= 0.17977+309
Lmxo=1 Lmxkb= 3    BasisType=split      Semic=F
L=0  Nsemic=0  Cnfigmx=2
          n=1  nzeta=2  polorb=0
            splnorm:   0.15000    
               vcte:    0.0000    
               rinn:    0.0000    
                rcs:    0.0000      0.0000    
            lambdas:    1.0000      1.0000    
L=1  Nsemic=0  Cnfigmx=2
          n=1  nzeta=2  polorb=1
            splnorm:   0.15000    
               vcte:    0.0000    
               rinn:    0.0000    
                rcs:    0.0000      0.0000    
            lambdas:    1.0000      1.0000    
-------------------------------------------------------------------------------
L=0  Nkbl=1  erefs: 0.17977+309
L=1  Nkbl=1  erefs: 0.17977+309
L=2  Nkbl=1  erefs: 0.17977+309
L=3  Nkbl=1  erefs: 0.17977+309
===============================================================================
</basis_specs>

atom: Called for B                     (Z =   5)

read_vps: Pseudopotential generation method:
read_vps: ATM3      Troullier-Martins                       
Total valence charge:    3.00000

read_vps: Pseudopotential includes a core correction:
read_vps: Pseudo-core for xc-correction

xc_check: Exchange-correlation functional:
xc_check: GGA Perdew, Burke & Ernzerhof 1996
V l=0 = -2*Zval/r beyond r=  1.7165
V l=1 = -2*Zval/r beyond r=  1.7165
V l=2 = -2*Zval/r beyond r=  1.7165
V l=3 = -2*Zval/r beyond r=  1.6951
All V_l potentials equal beyond r=  1.7165
This should be close to max(r_c) in ps generation
All pots = -2*Zval/r beyond r=  1.7165

VLOCAL1: 99.0% of the norm of Vloc inside     14.733 Ry
VLOCAL1: 99.9% of the norm of Vloc inside     33.577 Ry
atom: Maximum radius for 4*pi*r*r*local-pseudopot. charge    2.04484
atom: Maximum radius for r*vlocal+2*Zval:    1.75994
GHOST: No ghost state for L =  0
GHOST: No ghost state for L =  1
GHOST: No ghost state for L =  2
GHOST: No ghost state for L =  3

KBgen: Kleinman-Bylander projectors: 
   l= 0   rc=  1.897051   el= -0.693730   Ekb=  4.595746   kbcos=  0.286105
   l= 1   rc=  1.920920   el= -0.265236   Ekb= -2.350715   kbcos= -0.315747
   l= 2   rc=  2.044840   el=  0.002055   Ekb= -0.690767   kbcos= -0.013822
   l= 3   rc=  2.149707   el=  0.003188   Ekb= -0.315358   kbcos= -0.002055

KBgen: Total number of  Kleinman-Bylander projectors:   16
atom: -------------------------------------------------------------------------

atom: SANKEY-TYPE ORBITALS:
atom: Selected multiple-zeta basis: split     

SPLIT: Orbitals with angular momentum L= 0

SPLIT: Basis orbitals for state 2s

SPLIT: PAO cut-off radius determined from an
SPLIT: energy shift=  0.007350 Ry

   izeta = 1
                 lambda =    1.000000
                     rc =    5.422032
                 energy =   -0.686029
                kinetic =    0.576707
    potential(screened) =   -1.262736
       potential(ionic) =   -3.271094

   izeta = 2
                 rmatch =    4.222573
              splitnorm =    0.150000
                 energy =   -0.602132
                kinetic =    0.858975
    potential(screened) =   -1.461107
       potential(ionic) =   -3.582536

SPLIT: Orbitals with angular momentum L= 1

SPLIT: Basis orbitals for state 2p

SPLIT: PAO cut-off radius determined from an
SPLIT: energy shift=  0.007350 Ry

   izeta = 1
                 lambda =    1.000000
                     rc =    6.790259
                 energy =   -0.258578
                kinetic =    1.481412
    potential(screened) =   -1.739989
       potential(ionic) =   -3.657461

   izeta = 2
                 rmatch =    4.608740
              splitnorm =    0.150000
                 energy =   -0.173757
                kinetic =    2.186690
    potential(screened) =   -2.360447
       potential(ionic) =   -4.464260

POLgen: Perturbative polarization orbital with L=  2

POLgen: Polarization orbital for state 2p

   izeta = 1
                     rc =    6.790259
                 energy =    0.684082
                kinetic =    1.471481
    potential(screened) =   -0.787399
       potential(ionic) =   -2.406985
atom: Total number of Sankey-type orbitals: 13

atm_pop: Valence configuration (for local Pseudopot. screening):
 2s( 2.00)                                                            
 2p( 1.00)                                                            
Vna: chval, zval:    3.00000   3.00000

Vna:  Cut-off radius for the neutral-atom potential:   6.790259
comcore: Pseudo-core radius Rcore=  2.122997

atom: _________________________________________________________________________

<basis_specs>
===============================================================================
C                    Z=   6    Mass=  12.010        Charge= 0.17977+309
Lmxo=1 Lmxkb= 3    BasisType=split      Semic=F
L=0  Nsemic=0  Cnfigmx=2
          n=1  nzeta=2  polorb=0
            splnorm:   0.15000    
               vcte:    0.0000    
               rinn:    0.0000    
                rcs:    0.0000      0.0000    
            lambdas:    1.0000      1.0000    
L=1  Nsemic=0  Cnfigmx=2
          n=1  nzeta=2  polorb=1
            splnorm:   0.15000    
               vcte:    0.0000    
               rinn:    0.0000    
                rcs:    0.0000      0.0000    
            lambdas:    1.0000      1.0000    
-------------------------------------------------------------------------------
L=0  Nkbl=1  erefs: 0.17977+309
L=1  Nkbl=1  erefs: 0.17977+309
L=2  Nkbl=1  erefs: 0.17977+309
L=3  Nkbl=1  erefs: 0.17977+309
===============================================================================
</basis_specs>

atom: Called for C                     (Z =   6)

read_vps: Pseudopotential generation method:
read_vps: ATM3      Troullier-Martins                       
Total valence charge:    4.00000

read_vps: Pseudopotential includes a core correction:
read_vps: Pseudo-core for xc-correction

xc_check: Exchange-correlation functional:
xc_check: GGA Perdew, Burke & Ernzerhof 1996
V l=0 = -2*Zval/r beyond r=  1.5227
V l=1 = -2*Zval/r beyond r=  1.5227
V l=2 = -2*Zval/r beyond r=  1.5227
V l=3 = -2*Zval/r beyond r=  1.5038
All V_l potentials equal beyond r=  1.5227
This should be close to max(r_c) in ps generation
All pots = -2*Zval/r beyond r=  1.5227

VLOCAL1: 99.0% of the norm of Vloc inside     18.722 Ry
VLOCAL1: 99.9% of the norm of Vloc inside     42.668 Ry
atom: Maximum radius for 4*pi*r*r*local-pseudopot. charge    1.83678
atom: Maximum radius for r*vlocal+2*Zval:    1.58088
GHOST: No ghost state for L =  0
GHOST: No ghost state for L =  1
GHOST: No ghost state for L =  2
GHOST: No ghost state for L =  3

KBgen: Kleinman-Bylander projectors: 
   l= 0   rc=  1.704034   el= -1.009801   Ekb=  5.335044   kbcos=  0.316824
   l= 1   rc=  1.704034   el= -0.388707   Ekb= -3.785862   kbcos= -0.366464
   l= 2   rc=  1.791422   el=  0.001971   Ekb= -0.970471   kbcos= -0.009212
   l= 3   rc=  1.859892   el=  0.003065   Ekb= -0.399525   kbcos= -0.001223

KBgen: Total number of  Kleinman-Bylander projectors:   16
atom: -------------------------------------------------------------------------

atom: SANKEY-TYPE ORBITALS:
atom: Selected multiple-zeta basis: split     

SPLIT: Orbitals with angular momentum L= 0

SPLIT: Basis orbitals for state 2s

SPLIT: PAO cut-off radius determined from an
SPLIT: energy shift=  0.007350 Ry

   izeta = 1
                 lambda =    1.000000
                     rc =    4.632753
                 energy =   -1.002270
                kinetic =    0.855760
    potential(screened) =   -1.858031
       potential(ionic) =   -5.417575

   izeta = 2
                 rmatch =    3.431921
              splitnorm =    0.150000
                 energy =   -0.867111
                kinetic =    1.300804
    potential(screened) =   -2.167915
       potential(ionic) =   -5.962684

SPLIT: Orbitals with angular momentum L= 1

SPLIT: Basis orbitals for state 2p

SPLIT: PAO cut-off radius determined from an
SPLIT: energy shift=  0.007350 Ry

   izeta = 1
                 lambda =    1.000000
                     rc =    5.658549
                 energy =   -0.381140
                kinetic =    2.399701
    potential(screened) =   -2.780841
       potential(ionic) =   -6.206085

   izeta = 2
                 rmatch =    3.653288
              splitnorm =    0.150000
                 energy =   -0.249149
                kinetic =    3.542762
    potential(screened) =   -3.791911
       potential(ionic) =   -7.581078

POLgen: Perturbative polarization orbital with L=  2

POLgen: Polarization orbital for state 2p

   izeta = 1
                     rc =    5.658549
                 energy =    1.109913
                kinetic =    2.304789
    potential(screened) =   -1.194876
       potential(ionic) =   -4.013592
atom: Total number of Sankey-type orbitals: 13

atm_pop: Valence configuration (for local Pseudopot. screening):
 2s( 2.00)                                                            
 2p( 2.00)                                                            
Vna: chval, zval:    4.00000   4.00000

Vna:  Cut-off radius for the neutral-atom potential:   5.658549
comcore: Pseudo-core radius Rcore=  1.791422

atom: _________________________________________________________________________

prinput: Basis input ----------------------------------------------------------

PAO.BasisType split     

%block ChemicalSpeciesLabel
    1    5 B                       # Species index, atomic number, species label
    2    6 C                       # Species index, atomic number, species label
%endblock ChemicalSpeciesLabel

%block PAO.Basis                 # Define Basis set
B                     2                    # Species label, number of l-shells
 n=2   0   2                         # n, l, Nzeta 
   5.422      4.223   
   1.000      1.000   
 n=2   1   2 P   1                   # n, l, Nzeta, Polarization, NzetaPol
   6.790      4.609   
   1.000      1.000   
C                     2                    # Species label, number of l-shells
 n=2   0   2                         # n, l, Nzeta 
   4.633      3.432   
   1.000      1.000   
 n=2   1   2 P   1                   # n, l, Nzeta, Polarization, NzetaPol
   5.659      3.653   
   1.000      1.000   
%endblock PAO.Basis

prinput: ----------------------------------------------------------------------

coor:   Atomic-coordinates input format  =     Fractional

siesta: Atomic coordinates (Bohr) and species
siesta:     -2.35420  17.38257   0.00000  1        1
siesta:     -0.02582  21.41544   0.00000  1        2
siesta:      2.30256  25.44831   0.00000  1        3
siesta:     -7.01096  22.75985   0.00000  1        4
siesta:      4.63094  29.48119   0.00000  1        5
siesta:     -4.68258  26.79272   0.00000  1        6
siesta:     -2.35420  30.82560   0.00000  1        7
siesta:     -0.02582  34.85847   0.00000  1        8
siesta:     -0.02582   2.59549   0.00000  2        9
siesta:     -0.02582   5.28395   0.00000  2       10
siesta:     -2.35420  38.89134   0.00000  2       11
siesta:     -2.35420  41.57980   0.00000  2       12
siesta:      2.30256  38.89134   0.00000  2       13
siesta:      2.30256  41.57980   0.00000  2       14
siesta:      4.63094  34.85847   0.00000  2       15
siesta:      4.63094  37.54693   0.00000  2       16
siesta:      6.95932  30.82560   0.00000  2       17
siesta:      6.95932  33.51406   0.00000  2       18
siesta:      9.28770  26.79272   0.00000  2       19
siesta:      9.28770  29.48119   0.00000  2       20
siesta:     -4.68258  34.85847   0.00000  2       21
siesta:     -4.68258  37.54693   0.00000  2       22
siesta:      2.30256   6.62836   0.00000  2       23
siesta:      2.30256   9.31683   0.00000  2       24
siesta:      4.63094  10.66124   0.00000  2       25
siesta:      4.63094  13.34970   0.00000  2       26
siesta:      6.95932  14.69411   0.00000  2       27
siesta:      6.95932  17.38257   0.00000  2       28
siesta:      9.28770  18.72698   0.00000  2       29
siesta:      9.28770  21.41544   0.00000  2       30
siesta:     11.61608  22.75985   0.00000  2       31
siesta:     11.61608  25.44831   0.00000  2       32
siesta:     -2.35420   6.62836   0.00000  2       33
siesta:     -2.35420   9.31683   0.00000  2       34
siesta:     -0.02582  10.66124   0.00000  2       35
siesta:     -0.02582  13.34970   0.00000  2       36
siesta:      2.30256  14.69411   0.00000  2       37
siesta:      2.30256  17.38257   0.00000  2       38
siesta:      4.63094  18.72698   0.00000  2       39
siesta:      4.63094  21.41544   0.00000  2       40
siesta:      6.95932  22.75985   0.00000  2       41
siesta:      6.95932  25.44831   0.00000  2       42
siesta:     -4.68258  10.66124   0.00000  2       43
siesta:     -4.68258  13.34970   0.00000  2       44
siesta:     -2.35420  14.69411   0.00000  2       45
siesta:     -0.02582  18.72698   0.00000  2       46
siesta:      2.30256  22.75985   0.00000  2       47
siesta:     -7.01096  14.69411   0.00000  2       48
siesta:     -7.01096  17.38257   0.00000  2       49
siesta:     -4.68258  18.72698   0.00000  2       50
siesta:     -4.68258  21.41544   0.00000  2       51
siesta:     -2.35420  22.75985   0.00000  2       52
siesta:     -2.35420  25.44831   0.00000  2       53
siesta:     -9.33934  18.72698   0.00000  2       54
siesta:     -9.33934  21.41544   0.00000  2       55
siesta:     -7.01096  25.44831   0.00000  2       56
siesta:    -11.66772  22.75985   0.00000  2       57
siesta:    -11.66772  25.44831   0.00000  2       58
siesta:     -9.33934  26.79272   0.00000  2       59
siesta:     -9.33934  29.48119   0.00000  2       60
siesta:      4.63094  26.79272   0.00000  2       61
siesta:     -0.02582  26.79272   0.00000  2       62
siesta:     -0.02582  29.48119   0.00000  2       63
siesta:     -4.68258  29.48119   0.00000  2       64
siesta:      2.30256  30.82560   0.00000  2       65
siesta:      2.30256  33.51406   0.00000  2       66
siesta:     -2.35420  33.51406   0.00000  2       67
siesta:     -7.01096  30.82560   0.00000  2       68
siesta:     -7.01096  33.51406   0.00000  2       69
siesta:     -0.02582  37.54693   0.00000  2       70
siesta:     -0.02582  42.92421   0.00000  2       71
siesta:     -0.02582  45.61267   0.00000  2       72

siesta: System type = slab      

initatomlists: Number of atoms, orbitals, and projectors:     72   936  1152

siesta: ******************** Simulation parameters ****************************
siesta:
siesta: The following are some of the parameters of the simulation.
siesta: A complete list of the parameters used, including default values,
siesta: can be found in file out.fdf
siesta:
redata: Non-Collinear-spin run           =     F
redata: SpinPolarized (Up/Down) run      =     F
redata: Number of spin components        =     1
redata: Long output                      =     F
redata: Number of Atomic Species         =        2
redata: Charge density info will appear in .RHO file
redata: Write Mulliken Pop.              =     NO
redata: Mesh Cutoff                      =   200.0000  Ry
redata: Net charge of the system         =     0.0000 |e|
redata: Max. number of SCF Iter          =      500
redata: SCF convergence failure will abort job
redata: Performing Pulay mixing using    =    10 iterations
redata: Mix DM in first SCF step ?       =     F
redata: Write Pulay info on disk?        =     F
redata: Discard 1st Pulay DM after  kick =     F
redata: New DM Mixing Weight             =     0.0500
redata: New DM Occupancy tolerance       = 0.000000000001
redata: No kicks to SCF
redata: DM Mixing Weight for Kicks       =     0.5000
redata: DM Tolerance for SCF             =     0.000100
redata: Require Energy convergence for SCF =     F
redata: DM Energy tolerance for SCF      =     0.000100 eV
redata: Require Harris convergence for SCF =     F
redata: DM Harris energy tolerance for SCF =     0.000100 eV
redata: Using Saved Data (generic)   =     F
redata: Use continuation files for DM    =     T
redata: Neglect nonoverlap interactions  =     F
redata: Method of Calculation            =     Diagonalization
redata: Divide and Conquer               =     T
redata: Electronic Temperature           =     0.0019  Ry
redata: Fix the spin of the system       =     F
redata: Dynamics option                  =     Verlet MD run
redata: Initial MD time step             =        1
redata:   Final MD time step             =        1
redata: Length of MD time step           =     1.0000  fs
redata: Initial Temperature of MD run    =     0.0000  K
redata: Perform a MD quench              =     F
redata: ***********************************************************************
Total number of electrons:   280.000000
Total ionic charge:   280.000000

* ProcessorY, Blocksize:    3  24

k-point displ. along   1 input, could be:     0.50    0.00
k-point displ. along   2 input, could be:     0.50    0.00
 Kpoints in:          231 . Kpoints trimmed:          231

siesta: k-grid: Number of k-points =   231
siesta: k-grid: Cutoff (effective) =     5.000 Ang
siesta: k-grid: Supercell and displacements
siesta: k-grid:   21   0   0      0.500
siesta: k-grid:    0  21   0      0.500
siesta: k-grid:    0   0   1      0.000
Naive supercell factors:     2    2    2

superc: Internal auxiliary supercell:     2 x     2 x     2  =       8
superc: Number of atoms, orbitals, and projectors:    576   7488   9216

* Maximum dynamic memory allocated =     4 MB

siesta:                 ==============================
                            Begin MD step =      1
                        ==============================

superc: Internal auxiliary supercell:     2 x     2 x     2  =       8
superc: Number of atoms, orbitals, and projectors:    576   7488   9216

outcell: Unit cell vectors (Ang):
       12.804619    7.392750    0.000000
        0.000000   14.785500    0.000000
        0.000000    0.000000   10.000000

outcell: Cell vector modules (Ang)   :   14.785500   14.785500   10.000000
outcell: Cell angles (23,13,12) (deg):     90.0000     90.0000     60.0000
outcell: Cell volume (Ang**3)        :   1893.2269
New_DM. Step:     1
Initializing Density Matrix...

InitMesh: MESH =   120 x   120 x    90 =     1296000
InitMesh: Mesh cutoff (required, used) =   200.000   223.865 Ry

* Maximum dynamic memory allocated =   151 MB

stepf: Fermi-Dirac step function

siesta: Program's energy decomposition (eV):
siesta: Ebs     =     -5782.656933
siesta: Eions   =     17378.557381
siesta: Ena     =      4537.639304
siesta: Ekin    =      5956.271858
siesta: Enl     =       700.734696
siesta: DEna    =        -0.000013
siesta: DUscf   =         0.000000
siesta: DUext   =         0.000000
siesta: Exc     =     -4181.720936
siesta: eta*DQ  =         0.000000
siesta: Emadel  =         0.000000
siesta: Emeta   =         0.000000
siesta: Emolmec =         0.000000
siesta: Ekinion =         0.000000
siesta: Eharris =    -10077.424138
siesta: Etot    =    -10365.632471
siesta: FreeEng =    -10365.632471

siesta: iscf   Eharris(eV)      E_KS(eV)   FreeEng(eV)   dDmax  Ef(eV)
siesta:    1   -10077.4241   -10365.6325   -10365.6325  6.8942 -7.9718
timer: Routine,Calls,Time,% = IterSCF        1    3049.618  99.59
elaps: Routine,Calls,Wall,% = IterSCF        1     254.741  99.59
siesta:    2   -13851.1091    -9455.1373    -9455.2038 15.7065 -2.8620
siesta:    3   -10024.4957   -10199.8295   -10199.8878  3.2084 -6.5472
siesta:    4    -9995.5181   -10069.2096   -10069.2096  1.2608 -5.4938
siesta:    5    -9948.1872   -10016.4117   -10016.4209  0.8186 -5.3815
siesta:    6    -9939.9065    -9978.1285    -9978.1514  0.7564 -5.0539
siesta:    7    -9933.6077    -9964.8888    -9964.8934  0.6826 -4.9291
siesta:    8    -9929.7472    -9951.2193    -9951.2471  0.5665 -5.0352
siesta:    9    -9929.4226    -9932.1001    -9932.1624  0.4172 -4.8452
siesta:   10    -9929.2064    -9923.0812    -9923.1441  0.3061 -4.7628
siesta:   11    -9930.0796    -9912.3841    -9912.4399  0.3220 -4.7531
siesta:   12    -9929.2518    -9907.5466    -9907.5973  0.1950 -4.7230
siesta:   13    -9929.0146    -9904.9138    -9904.9592  0.1712 -4.6909
siesta:   14    -9928.1138    -9908.8913    -9908.9298  0.1353 -4.7857
siesta:   15    -9927.4569    -9913.2885    -9913.3337  0.0990 -4.8910
siesta:   16    -9927.4662    -9915.5037    -9915.5748  0.1041 -4.8587
siesta:   17    -9927.3756    -9917.7734    -9917.8273  0.0848 -4.8616
siesta:   18    -9927.2743    -9919.9229    -9919.9715  0.0618 -4.8704
siesta:   19    -9927.2560    -9920.9720    -9921.0236  0.0537 -4.8622
siesta:   20    -9927.2448    -9924.1145    -9924.1628  0.0455 -4.8808
siesta:   21    -9927.2362    -9926.1625    -9926.2158  0.0356 -4.8994
siesta:   22    -9927.2310    -9926.9935    -9927.0502  0.0270 -4.9034
siesta:   23    -9927.2331    -9927.1074    -9927.1646  0.0204 -4.8931
siesta:   24    -9927.2295    -9927.5315    -9927.5857  0.0107 -4.8953
siesta:   25    -9927.2294    -9927.4410    -9927.4972  0.0088 -4.8913
siesta:   26    -9927.2283    -9927.5766    -9927.6320  0.0064 -4.8921
siesta:   27    -9927.2286    -9927.3633    -9927.4191  0.0041 -4.8905
siesta:   28    -9927.2283    -9927.3407    -9927.3960  0.0029 -4.8908
siesta:   29    -9927.2284    -9927.2454    -9927.3009  0.0015 -4.8902
siesta:   30    -9927.2284    -9927.2119    -9927.2672  0.0012 -4.8906
siesta:   31    -9927.2284    -9927.1907    -9927.2460  0.0008 -4.8909
siesta:   32    -9927.2283    -9927.2096    -9927.2649  0.0006 -4.8910
siesta:   33    -9927.2283    -9927.2106    -9927.2660  0.0004 -4.8911
siesta:   34    -9927.2283    -9927.2166    -9927.2719  0.0003 -4.8912
siesta:   35    -9927.2283    -9927.2163    -9927.2716  0.0001 -4.8912
siesta:   36    -9927.2283    -9927.2184    -9927.2738  0.0001 -4.8912
siesta:   37    -9927.2283    -9927.2204    -9927.2758  0.0001 -4.8912
siesta:   38    -9927.2283    -9927.2244    -9927.2797  0.0001 -4.8912

siesta: E_KS(eV) =            -9927.2269

siesta: E_KS - E_eggbox =     -9927.2269

siesta: Atomic forces (eV/Ang):
----------------------------------------
   Tot   -0.129569   -0.034070    0.000000
----------------------------------------
   Max  560.280669
   Res  161.174405    sqrt( Sum f_i^2 / 3N )
----------------------------------------
   Max  560.280669    constrained

Stress-tensor-Voigt (kbar):     -756.96    -2838.76       -0.39       -0.05        0.00        0.00
(Free)E + p*V (eV/cell)    -8510.8372
Target enthalpy (eV/cell)    -9927.2823

siesta: Stress tensor (static) (eV/Ang**3):
        -0.472455   -0.000029    0.000000
        -0.000029   -1.771795    0.000000
         0.000000    0.000000   -0.000244

siesta: Pressure (static):       1198.70454445  kBar

siesta: Stress tensor (total) (eV/Ang**3):
        -0.472455   -0.000029    0.000000
        -0.000029   -1.771795    0.000000
         0.000000    0.000000   -0.000244

siesta: Pressure (total):       1198.70454445  kBar

siesta: Temp_ion =       0.000 K

* Maximum dynamic memory allocated =   163 MB
Computing bands...

siesta: Program's energy decomposition (eV):
siesta: Ebs     =     -4436.239218
siesta: Eions   =     17378.557381
siesta: Ena     =      4537.639304
siesta: Ekin    =      8917.154619
siesta: Enl     =      -951.628832
siesta: DEna    =      -802.566767
siesta: DUscf   =       107.182576
siesta: DUext   =         0.000000
siesta: Exc     =     -4356.450409
siesta: eta*DQ  =         0.000000
siesta: Emadel  =         0.000000
siesta: Emeta   =         0.000000
siesta: Emolmec =         0.000000
siesta: Ekinion =         0.000000
siesta: Eharris =     -9927.228291
siesta: Etot    =     -9927.226891
siesta: FreeEng =     -9927.282258

siesta: Final energy (eV):
siesta:  Band Struct. =   -4436.239218
siesta:       Kinetic =    8917.154619
siesta:       Hartree =   28989.135338
siesta:    Ext. field =       0.000000
siesta:   Exch.-corr. =   -4356.450409
siesta:  Ion-electron =  -66594.051679
siesta:       Ion-ion =   23116.985241
siesta:       Ekinion =       0.000000
siesta:         Total =   -9927.226891

siesta: Atomic forces (eV/Ang):
siesta:      1  -19.055792   -3.371119    0.000000
siesta:      2    0.819984    1.459109    0.000000
siesta:      3    0.877875    0.050393    0.000000
siesta:      4   -0.094697    0.996730    0.000000
siesta:      5   -0.838432   -0.938133    0.000000
siesta:      6   -0.721330   -0.006432    0.000000
siesta:      7  -20.091714    3.089489    0.000000
siesta:      8    0.123090  114.012002    0.000000
siesta:      9    2.656326  550.257972    0.000000
siesta:     10   -4.151896 -135.273053    0.000000
siesta:     11    2.232302  127.873973    0.000000
siesta:     12  -18.248533 -551.447164    0.000000
siesta:     13   -2.112918  126.906363    0.000000
siesta:     14   16.359557 -548.219603    0.000000
siesta:     15   26.868092    4.488592    0.000000
siesta:     16   32.570705 -548.178343    0.000000
siesta:     17    6.101639    2.303720    0.000000
siesta:     18   -2.655780    1.950129    0.000000
siesta:     19    3.005380    1.292360    0.000000
siesta:     20   -1.532710    0.877735    0.000000
siesta:     21  -26.827327    3.966979    0.000000
siesta:     22  -33.056917 -548.245227    0.000000
siesta:     23   23.727662  549.872808    0.000000
siesta:     24   -3.842471 -130.082631    0.000000
siesta:     25   34.011185  548.350610    0.000000
siesta:     26   26.664414   -5.355445    0.000000
siesta:     27   -2.456563   -2.019984    0.000000
siesta:     28    1.885513   -0.153114    0.000000
siesta:     29   -0.963554   -0.670945    0.000000
siesta:     30    2.645201   -1.582557    0.000000
siesta:     31   -0.390253    6.828437    0.000000
siesta:     32   -0.610803   -6.784228    0.000000
siesta:     33  -21.975221  552.645477    0.000000
siesta:     34    3.842953 -130.644275    0.000000
siesta:     35    0.080958  554.342251    0.000000
siesta:     36   -0.237325 -130.518442    0.000000
siesta:     37   23.331570  557.047799    0.000000
siesta:     38   22.053942   -5.411056    0.000000
siesta:     39   -0.872046    1.954379    0.000000
siesta:     40   -0.114264    0.115851    0.000000
siesta:     41    0.050889    0.283501    0.000000
siesta:     42   -0.968074   -0.484525    0.000000
siesta:     43  -33.388356  548.130619    0.000000
siesta:     44  -25.918294   -4.708713    0.000000
siesta:     45  -23.567952  553.251716    0.000000
siesta:     46   -2.337246  555.816318    0.000000
siesta:     47    2.035873   -2.533441    0.000000
siesta:     48    1.924219   -1.414557    0.000000
siesta:     49   -2.424652   -0.758044    0.000000
siesta:     50   -0.122549    2.067638    0.000000
siesta:     51    2.834152   -1.285524    0.000000
siesta:     52   -1.648074    0.442740    0.000000
siesta:     53    3.673250   -0.494412    0.000000
siesta:     54    1.348591   -0.448582    0.000000
siesta:     55   -6.659655   -3.906254    0.000000
siesta:     56   -2.699558    1.233680    0.000000
siesta:     57    0.673393    7.394050    0.000000
siesta:     58    0.167379   -7.255619    0.000000
siesta:     59   -2.571502    1.270652    0.000000
siesta:     60    1.629264    0.736165    0.000000
siesta:     61    2.725812   -1.945680    0.000000
siesta:     62   -3.313826    0.575061    0.000000
siesta:     63   -2.716880 -560.280669    0.000000
siesta:     64    0.037864    2.211736    0.000000
siesta:     65   19.607525    7.021164    0.000000
siesta:     66   17.471430 -550.711026    0.000000
siesta:     67  -17.234978 -548.353839    0.000000
siesta:     68   -2.869826    0.643352    0.000000
siesta:     69    2.338335    2.161972    0.000000
siesta:     70    0.090414 -544.967369    0.000000
siesta:     71   -0.992587  132.883939    0.000000
siesta:     72    3.688249 -548.391524    0.000000
siesta: ----------------------------------------
siesta:    Tot   -0.129569   -0.034070    0.000000

siesta: Stress tensor (static) (eV/Ang**3):
siesta:    -0.472455   -0.000029    0.000000
siesta:    -0.000029   -1.771795    0.000000
siesta:     0.000000    0.000000   -0.000244

siesta: Cell volume =       1893.226884 Ang**3

siesta: Pressure (static):
siesta:                Solid            Molecule  Units
siesta:           0.00814847          0.12555950  Ry/Bohr**3
siesta:           0.74816444         11.52844635  eV/Ang**3
siesta:        1198.70454445      18470.80701954  kBar
(Free)E+ p_basis*V_orbitals  =       -9894.017012
(Free)Eharris+ p_basis*V_orbitals  =       -9894.020931

siesta: Electric dipole (a.u.)  =    0.000000    0.000000    0.000000
siesta: Electric dipole (Debye) =    0.000000    0.000000    0.000000

* Maximum dynamic memory allocated : Node    0 =   163 MB
* Maximum dynamic memory allocated : Node    1 =    65 MB
* Maximum dynamic memory allocated : Node    2 =    66 MB
* Maximum dynamic memory allocated : Node    3 =   149 MB
* Maximum dynamic memory allocated : Node    4 =   156 MB
* Maximum dynamic memory allocated : Node    5 =    57 MB
* Maximum dynamic memory allocated : Node    6 =    59 MB
* Maximum dynamic memory allocated : Node    7 =   148 MB
* Maximum dynamic memory allocated : Node    8 =   146 MB
* Maximum dynamic memory allocated : Node    9 =    58 MB
* Maximum dynamic memory allocated : Node   10 =    59 MB
* Maximum dynamic memory allocated : Node   11 =   139 MB

* Maximum memory occured during matrixMtoO                    

timer: CPU execution times:
timer:  Routine       Calls   Time/call    Tot.time        %
timer:  siesta            1  113320.910  113320.910   100.00
timer:  Setup             1       3.350       3.350     0.00
timer:  bands             3     226.653     679.959     0.60
timer:  writewave         1       0.024       0.024     0.00
timer:  KSV_init          1       0.003       0.003     0.00
timer:  IterMD            1  112630.765  112630.765    99.39
timer:  hsparse           1       0.281       0.281     0.00
timer:  overlap           1       6.023       6.023     0.01
timer:  IterSCF          38    2960.204  112487.760    99.26
timer:  kinefsm           2       3.069       6.139     0.01
timer:  nlefsm            2      19.709      39.419     0.03
timer:  DHSCF            39      74.757    2915.525     2.57
timer:  DHSCF1            1       1.190       1.190     0.00
timer:  DHSCF2            1      31.687      31.687     0.03
timer:  REORD           314       0.002       0.720     0.00
timer:  POISON           40       0.449      17.954     0.02
timer:  DHSCF3           39      73.245    2856.552     2.52
timer:  rhoofd           39      15.794     615.972     0.54
timer:  cellXC           39       2.403      93.706     0.08
timer:  vmat             39      33.443    1304.280     1.15
timer:  MolMec            2       0.000       0.000     0.00
timer:  diagon           38    2884.223  109600.480    96.72
timer:  c-eigval       8899       5.610   49919.236    44.05
timer:  c-buildHS      8899       0.035     309.632     0.27
timer:  cdiag         17677       5.713  100989.923    89.12
timer:  cdiag1        17677       0.262    4634.777     4.09
timer:  cdiag2        17677       1.846   32633.923    28.80
timer:  cdiag3        17677       3.389   59915.918    52.87
timer:  cdiag4        17677       0.088    1554.292     1.37
timer:  c-eigvec       8778       5.883   51641.414    45.57
timer:  c-buildD       8778       0.988    8672.637     7.65
timer:  DHSCF4            1      25.854      25.854     0.02
timer:  dfscf             1      23.804      23.804     0.02
timer:  overfsm           1       0.318       0.318     0.00
timer:  optical           1       6.237       6.237     0.01
  

elaps: ELAPSED times:
elaps:  Routine       Calls   Time/call    Tot.time        %
elaps:  siesta            1    9465.610    9465.610   100.00
elaps:  Setup             1       0.279       0.279     0.00
elaps:  bands             3      18.947      56.842     0.60
elaps:  writewave         1       0.002       0.002     0.00
elaps:  KSV_init          1       0.000       0.000     0.00
elaps:  IterMD            1    9407.964    9407.964    99.39
elaps:  hsparse           1       0.028       0.028     0.00
elaps:  overlap           1       0.717       0.717     0.01
elaps:  IterSCF          38     247.264    9396.018    99.26
elaps:  kinefsm           2       0.368       0.737     0.01
elaps:  nlefsm            2       1.721       3.443     0.04
elaps:  DHSCF            39       6.301     245.746     2.60
elaps:  DHSCF1            1       0.101       0.101     0.00
elaps:  DHSCF2            1       2.646       2.646     0.03
elaps:  REORD           314       0.000       0.094     0.00
elaps:  POISON           40       0.038       1.512     0.02
elaps:  DHSCF3           39       6.119     238.630     2.52
elaps:  rhoofd           39       2.766     107.871     1.14
elaps:  cellXC           39       0.200       7.810     0.08
elaps:  vmat             39       2.794     108.966     1.15
elaps:  MolMec            2       0.000       0.000     0.00
elaps:  diagon           38     240.925    9155.144    96.72
elaps:  c-eigval       8899       0.469    4169.672    44.05
elaps:  c-buildHS      8899       0.004      34.160     0.36
elaps:  cdiag         17677       0.472    8338.991    88.10
elaps:  cdiag1        17677       0.021     379.012     4.00
elaps:  cdiag2        17677       0.154    2728.369    28.82
elaps:  cdiag3        17677       0.283    5011.399    52.94
elaps:  cdiag4        17677       0.007     125.462     1.33
elaps:  c-eigvec       8778       0.482    4232.762    44.72
elaps:  c-buildD       8778       0.092     805.032     8.50
elaps:  DHSCF4            1       4.328       4.328     0.05
elaps:  dfscf             1       4.076       4.076     0.04
elaps:  overfsm           1       0.036       0.036     0.00
elaps:  optical           1       0.000       0.000     0.00
  
>> End of run:   4-MAY-2016   5:22:31
