Siesta Version:                                        siesta-3.2-pl-3
Architecture  : x86_64-unknown-linux-gnu--unknown
Compiler flags: mpiifort -g -O2 -fPIC -xSSE4.1 -fp-model source -shared-intel 
PARALLEL version

* Running on   12 nodes in parallel
>> Start of run:   2-MAY-2016  12:22:58

                           ***********************       
                           *  WELCOME TO SIESTA  *       
                           ***********************       

reinit: Reading from standard input
************************** Dump of input data file ****************************
#(1) General system descriptors
SystemName            GRP_doping    # Descriptive name of the system
SystemLabel           GRP_doping    # Short name for naming files
%include STRUCT.fdf
%include KPT.fdf
%include BASIS.fdf
#%include TS.fdf # for transiesta calculation
#(4) DFT, Grid, SCF
XC.functional         GGA           # LDA or GGA (default = LDA)
XC.authors            PBE           # CA (Ceperley-Aldr) = PZ
                                    #    (Perdew-Zunger) - LDA - Default
                                    # PW92 (Perdew-Wang-92) - LDA
                                    # PBE (Perdew-Burke-Ernzerhof) - GGA
MeshCutoff            200.000000    Ry      # Default: 50.0 Ry ~ 0.444 Bohr
                                    #         100.0 Ry ~ 0.314 Bohr
MaxSCFIterations      500           # Default: 50
DM.MixingWeight       0.05          # Default: 0.25
DM.NumberPulay        10            # Default: 0
DM.PulayOnFile        F             # SystemLabel.P1, SystemLabel.P2
DM.Tolerance          1.d-4         # Default: 1.d-4
DM.UseSaveDM          .true.        # because of the bug
SCFMustConverge       .true.
NeglNonOverlapInt     F             # Default: F
#(5) Eigenvalue problem: order-N or diagonalization
SolutionMethod        Diagon        # or Transiesta
ElectronicTemperature 300.0 K       # Default: 300.0 K
#(6) Molecular dynamics and relaxations
#MD.TypeOfRun          CG            # Type of dynamics:
#MD.VariableCell       F
#MD.NumCGsteps         0           # 0 for single-point / 100 for gopt
#MD.MaxCGDispl         0.2 Bohr      # Default: 0.2 Bohr
#MD.MaxForceTol        0.02 eV/Ang   # Default: 0.04 eV/Ang
#MD.MaxStressTol       1.0 GPa       # Default: 1.0 GPa
# Geometry Constraints
#%block GeometryConstraints
#	position from 1 to 44
#%endblock GeometryConstraints
BandLinesScale   pi/a
%block BandLines
 1   0.00000000  0.00000000  0.00000000
50   0.00000000  0.07809418  0.00000000
50   0.04509075  0.07809242  0.00000000
20   0.00000000  0.00000000  0.00000000
%endblock BandLines
************************** End of input data file *****************************

reinit: -----------------------------------------------------------------------
reinit: System Name: GRP_doping
reinit: -----------------------------------------------------------------------
reinit: System Label: GRP_doping                                                  
reinit: -----------------------------------------------------------------------

initatom: Reading input for the pseudopotentials and atomic orbitals ----------
 Species number:            1  Label: N Atomic number:           7
 Species number:            2  Label: C Atomic number:           6
Ground state valence configuration:   2s02  2p03
Reading pseudopotential information in formatted form from N.psf

Valence configuration for pseudopotential generation:
2s( 2.00) rc: 1.48
2p( 3.00) rc: 1.48
3d( 0.00) rc: 1.48
4f( 0.00) rc: 1.48
Ground state valence configuration:   2s02  2p02
Reading pseudopotential information in formatted form from C.psf

Valence configuration for pseudopotential generation:
2s( 2.00) rc: 1.54
2p( 2.00) rc: 1.54
3d( 0.00) rc: 1.54
4f( 0.00) rc: 1.54
For N, standard SIESTA heuristics set lmxkb to 3
 (one more than the basis l, including polarization orbitals).
Use PS.lmax or PS.KBprojectors blocks to override.
For C, standard SIESTA heuristics set lmxkb to 3
 (one more than the basis l, including polarization orbitals).
Use PS.lmax or PS.KBprojectors blocks to override.

<basis_specs>
===============================================================================
N                    Z=   7    Mass=  14.010        Charge= 0.17977+309
Lmxo=1 Lmxkb= 3    BasisType=split      Semic=F
L=0  Nsemic=0  Cnfigmx=2
          n=1  nzeta=2  polorb=0
            splnorm:   0.15000    
               vcte:    0.0000    
               rinn:    0.0000    
                rcs:    0.0000      0.0000    
            lambdas:    1.0000      1.0000    
L=1  Nsemic=0  Cnfigmx=2
          n=1  nzeta=2  polorb=1
            splnorm:   0.15000    
               vcte:    0.0000    
               rinn:    0.0000    
                rcs:    0.0000      0.0000    
            lambdas:    1.0000      1.0000    
-------------------------------------------------------------------------------
L=0  Nkbl=1  erefs: 0.17977+309
L=1  Nkbl=1  erefs: 0.17977+309
L=2  Nkbl=1  erefs: 0.17977+309
L=3  Nkbl=1  erefs: 0.17977+309
===============================================================================
</basis_specs>

atom: Called for N                     (Z =   7)

read_vps: Pseudopotential generation method:
read_vps: ATM3      Troullier-Martins                       
Total valence charge:    5.00000

read_vps: Pseudopotential includes a core correction:
read_vps: Pseudo-core for xc-correction

xc_check: Exchange-correlation functional:
xc_check: GGA Perdew, Burke & Ernzerhof 1996
V l=0 = -2*Zval/r beyond r=  1.4606
V l=1 = -2*Zval/r beyond r=  1.4606
V l=2 = -2*Zval/r beyond r=  1.4606
V l=3 = -2*Zval/r beyond r=  1.4606
All V_l potentials equal beyond r=  1.4606
This should be close to max(r_c) in ps generation
All pots = -2*Zval/r beyond r=  1.4606

VLOCAL1: 99.0% of the norm of Vloc inside     20.347 Ry
VLOCAL1: 99.9% of the norm of Vloc inside     46.372 Ry
atom: Maximum radius for 4*pi*r*r*local-pseudopot. charge    1.76189
atom: Maximum radius for r*vlocal+2*Zval:    1.53550
GHOST: No ghost state for L =  0
GHOST: No ghost state for L =  1
GHOST: No ghost state for L =  2
GHOST: No ghost state for L =  3

KBgen: Kleinman-Bylander projectors: 
   l= 0   rc=  1.634559   el= -1.363963   Ekb=  5.296955   kbcos=  0.335621
   l= 1   rc=  1.614250   el= -0.521451   Ekb= -5.259161   kbcos= -0.433408
   l= 2   rc=  1.718383   el=  0.001991   Ekb= -1.271464   kbcos= -0.007566
   l= 3   rc=  1.761893   el=  0.003093   Ekb= -0.494769   kbcos= -0.001015

KBgen: Total number of  Kleinman-Bylander projectors:   16
atom: -------------------------------------------------------------------------

atom: SANKEY-TYPE ORBITALS:
atom: Selected multiple-zeta basis: split     

SPLIT: Orbitals with angular momentum L= 0

SPLIT: Basis orbitals for state 2s

SPLIT: PAO cut-off radius determined from an
SPLIT: energy shift=  0.007350 Ry

   izeta = 1
                 lambda =    1.000000
                     rc =    4.071465
                 energy =   -1.356470
                kinetic =    1.176977
    potential(screened) =   -2.533447
       potential(ionic) =   -8.057990

   izeta = 2
                 rmatch =    2.905100
              splitnorm =    0.150000
                 energy =   -1.158343
                kinetic =    1.813009
    potential(screened) =   -2.971352
       potential(ionic) =   -8.901931

SPLIT: Orbitals with angular momentum L= 1

SPLIT: Basis orbitals for state 2p

SPLIT: PAO cut-off radius determined from an
SPLIT: energy shift=  0.007350 Ry

   izeta = 1
                 lambda =    1.000000
                     rc =    4.972977
                 energy =   -0.513884
                kinetic =    3.441732
    potential(screened) =   -3.955616
       potential(ionic) =   -9.287901

   izeta = 2
                 rmatch =    3.054066
              splitnorm =    0.150000
                 energy =   -0.318226
                kinetic =    5.125348
    potential(screened) =   -5.443573
       potential(ionic) =  -11.380999

POLgen: Perturbative polarization orbital with L=  2

POLgen: Polarization orbital for state 2p

   izeta = 1
                     rc =    4.972977
                 energy =    1.607437
                kinetic =    3.268125
    potential(screened) =   -1.660688
       potential(ionic) =   -5.973652
atom: Total number of Sankey-type orbitals: 13

atm_pop: Valence configuration (for local Pseudopot. screening):
 2s( 2.00)                                                            
 2p( 3.00)                                                            
Vna: chval, zval:    5.00000   5.00000

Vna:  Cut-off radius for the neutral-atom potential:   4.972977
comcore: Pseudo-core radius Rcore=  1.554824

atom: _________________________________________________________________________

<basis_specs>
===============================================================================
C                    Z=   6    Mass=  12.010        Charge= 0.17977+309
Lmxo=1 Lmxkb= 3    BasisType=split      Semic=F
L=0  Nsemic=0  Cnfigmx=2
          n=1  nzeta=2  polorb=0
            splnorm:   0.15000    
               vcte:    0.0000    
               rinn:    0.0000    
                rcs:    0.0000      0.0000    
            lambdas:    1.0000      1.0000    
L=1  Nsemic=0  Cnfigmx=2
          n=1  nzeta=2  polorb=1
            splnorm:   0.15000    
               vcte:    0.0000    
               rinn:    0.0000    
                rcs:    0.0000      0.0000    
            lambdas:    1.0000      1.0000    
-------------------------------------------------------------------------------
L=0  Nkbl=1  erefs: 0.17977+309
L=1  Nkbl=1  erefs: 0.17977+309
L=2  Nkbl=1  erefs: 0.17977+309
L=3  Nkbl=1  erefs: 0.17977+309
===============================================================================
</basis_specs>

atom: Called for C                     (Z =   6)

read_vps: Pseudopotential generation method:
read_vps: ATM3      Troullier-Martins                       
Total valence charge:    4.00000

read_vps: Pseudopotential includes a core correction:
read_vps: Pseudo-core for xc-correction

xc_check: Exchange-correlation functional:
xc_check: GGA Perdew, Burke & Ernzerhof 1996
V l=0 = -2*Zval/r beyond r=  1.5227
V l=1 = -2*Zval/r beyond r=  1.5227
V l=2 = -2*Zval/r beyond r=  1.5227
V l=3 = -2*Zval/r beyond r=  1.5038
All V_l potentials equal beyond r=  1.5227
This should be close to max(r_c) in ps generation
All pots = -2*Zval/r beyond r=  1.5227

VLOCAL1: 99.0% of the norm of Vloc inside     18.722 Ry
VLOCAL1: 99.9% of the norm of Vloc inside     42.668 Ry
atom: Maximum radius for 4*pi*r*r*local-pseudopot. charge    1.83678
atom: Maximum radius for r*vlocal+2*Zval:    1.58088
GHOST: No ghost state for L =  0
GHOST: No ghost state for L =  1
GHOST: No ghost state for L =  2
GHOST: No ghost state for L =  3

KBgen: Kleinman-Bylander projectors: 
   l= 0   rc=  1.704034   el= -1.009801   Ekb=  5.335044   kbcos=  0.316824
   l= 1   rc=  1.704034   el= -0.388707   Ekb= -3.785862   kbcos= -0.366464
   l= 2   rc=  1.791422   el=  0.001971   Ekb= -0.970471   kbcos= -0.009212
   l= 3   rc=  1.859892   el=  0.003065   Ekb= -0.399525   kbcos= -0.001223

KBgen: Total number of  Kleinman-Bylander projectors:   16
atom: -------------------------------------------------------------------------

atom: SANKEY-TYPE ORBITALS:
atom: Selected multiple-zeta basis: split     

SPLIT: Orbitals with angular momentum L= 0

SPLIT: Basis orbitals for state 2s

SPLIT: PAO cut-off radius determined from an
SPLIT: energy shift=  0.007350 Ry

   izeta = 1
                 lambda =    1.000000
                     rc =    4.632753
                 energy =   -1.002270
                kinetic =    0.855760
    potential(screened) =   -1.858031
       potential(ionic) =   -5.417575

   izeta = 2
                 rmatch =    3.431921
              splitnorm =    0.150000
                 energy =   -0.867111
                kinetic =    1.300804
    potential(screened) =   -2.167915
       potential(ionic) =   -5.962684

SPLIT: Orbitals with angular momentum L= 1

SPLIT: Basis orbitals for state 2p

SPLIT: PAO cut-off radius determined from an
SPLIT: energy shift=  0.007350 Ry

   izeta = 1
                 lambda =    1.000000
                     rc =    5.658549
                 energy =   -0.381140
                kinetic =    2.399701
    potential(screened) =   -2.780841
       potential(ionic) =   -6.206085

   izeta = 2
                 rmatch =    3.653288
              splitnorm =    0.150000
                 energy =   -0.249149
                kinetic =    3.542762
    potential(screened) =   -3.791911
       potential(ionic) =   -7.581078

POLgen: Perturbative polarization orbital with L=  2

POLgen: Polarization orbital for state 2p

   izeta = 1
                     rc =    5.658549
                 energy =    1.109913
                kinetic =    2.304789
    potential(screened) =   -1.194876
       potential(ionic) =   -4.013592
atom: Total number of Sankey-type orbitals: 13

atm_pop: Valence configuration (for local Pseudopot. screening):
 2s( 2.00)                                                            
 2p( 2.00)                                                            
Vna: chval, zval:    4.00000   4.00000

Vna:  Cut-off radius for the neutral-atom potential:   5.658549
comcore: Pseudo-core radius Rcore=  1.791422

atom: _________________________________________________________________________

prinput: Basis input ----------------------------------------------------------

PAO.BasisType split     

%block ChemicalSpeciesLabel
    1    7 N                       # Species index, atomic number, species label
    2    6 C                       # Species index, atomic number, species label
%endblock ChemicalSpeciesLabel

%block PAO.Basis                 # Define Basis set
N                     2                    # Species label, number of l-shells
 n=2   0   2                         # n, l, Nzeta 
   4.071      2.905   
   1.000      1.000   
 n=2   1   2 P   1                   # n, l, Nzeta, Polarization, NzetaPol
   4.973      3.054   
   1.000      1.000   
C                     2                    # Species label, number of l-shells
 n=2   0   2                         # n, l, Nzeta 
   4.633      3.432   
   1.000      1.000   
 n=2   1   2 P   1                   # n, l, Nzeta, Polarization, NzetaPol
   5.659      3.653   
   1.000      1.000   
%endblock PAO.Basis

prinput: ----------------------------------------------------------------------

coor:   Atomic-coordinates input format  =     Fractional

siesta: Atomic coordinates (Bohr) and species
siesta:     -2.35420  17.38257   0.00000  1        1
siesta:     -0.02582  18.72698   0.00000  1        2
siesta:     -0.02582  21.41544   0.00000  1        3
siesta:      2.30256  22.75985   0.00000  1        4
siesta:      2.30256  25.44831   0.00000  1        5
siesta:     -4.68258  18.72698   0.00000  1        6
siesta:     -4.68258  21.41544   0.00000  1        7
siesta:     -2.35420  22.75985   0.00000  1        8
siesta:     -2.35420  25.44831   0.00000  1        9
siesta:      4.63094  26.79272   0.00000  1       10
siesta:      4.63094  29.48119   0.00000  1       11
siesta:     -0.02582  26.79272   0.00000  1       12
siesta:     -0.02582  29.48119   0.00000  1       13
siesta:      2.30256  30.82560   0.00000  1       14
siesta:      2.30256  33.51406   0.00000  1       15
siesta:     -0.02582  34.85847   0.00000  1       16
siesta:     -0.02582   2.59549   0.00000  2       17
siesta:     -0.02582   5.28395   0.00000  2       18
siesta:     -2.35420  38.89134   0.00000  2       19
siesta:     -2.35420  41.57980   0.00000  2       20
siesta:      2.30256  38.89134   0.00000  2       21
siesta:      2.30256  41.57980   0.00000  2       22
siesta:      4.63094  34.85847   0.00000  2       23
siesta:      4.63094  37.54693   0.00000  2       24
siesta:      6.95932  30.82560   0.00000  2       25
siesta:      6.95932  33.51406   0.00000  2       26
siesta:      9.28770  26.79272   0.00000  2       27
siesta:      9.28770  29.48119   0.00000  2       28
siesta:     -4.68258  34.85847   0.00000  2       29
siesta:     -4.68258  37.54693   0.00000  2       30
siesta:      2.30256   6.62836   0.00000  2       31
siesta:      2.30256   9.31683   0.00000  2       32
siesta:      4.63094  10.66124   0.00000  2       33
siesta:      4.63094  13.34970   0.00000  2       34
siesta:      6.95932  14.69411   0.00000  2       35
siesta:      6.95932  17.38257   0.00000  2       36
siesta:      9.28770  18.72698   0.00000  2       37
siesta:      9.28770  21.41544   0.00000  2       38
siesta:     11.61608  22.75985   0.00000  2       39
siesta:     11.61608  25.44831   0.00000  2       40
siesta:     -2.35420   6.62836   0.00000  2       41
siesta:     -2.35420   9.31683   0.00000  2       42
siesta:     -0.02582  10.66124   0.00000  2       43
siesta:     -0.02582  13.34970   0.00000  2       44
siesta:      2.30256  14.69411   0.00000  2       45
siesta:      2.30256  17.38257   0.00000  2       46
siesta:      4.63094  18.72698   0.00000  2       47
siesta:      4.63094  21.41544   0.00000  2       48
siesta:      6.95932  22.75985   0.00000  2       49
siesta:      6.95932  25.44831   0.00000  2       50
siesta:     -4.68258  10.66124   0.00000  2       51
siesta:     -4.68258  13.34970   0.00000  2       52
siesta:     -2.35420  14.69411   0.00000  2       53
siesta:     -7.01096  14.69411   0.00000  2       54
siesta:     -7.01096  17.38257   0.00000  2       55
siesta:     -9.33934  18.72698   0.00000  2       56
siesta:     -9.33934  21.41544   0.00000  2       57
siesta:     -7.01096  22.75985   0.00000  2       58
siesta:     -7.01096  25.44831   0.00000  2       59
siesta:    -11.66772  22.75985   0.00000  2       60
siesta:    -11.66772  25.44831   0.00000  2       61
siesta:     -9.33934  26.79272   0.00000  2       62
siesta:     -9.33934  29.48119   0.00000  2       63
siesta:     -4.68258  26.79272   0.00000  2       64
siesta:     -4.68258  29.48119   0.00000  2       65
siesta:     -2.35420  30.82560   0.00000  2       66
siesta:     -2.35420  33.51406   0.00000  2       67
siesta:     -7.01096  30.82560   0.00000  2       68
siesta:     -7.01096  33.51406   0.00000  2       69
siesta:     -0.02582  37.54693   0.00000  2       70
siesta:     -0.02582  42.92421   0.00000  2       71
siesta:     -0.02582  45.61267   0.00000  2       72

siesta: System type = slab      

initatomlists: Number of atoms, orbitals, and projectors:     72   936  1152

siesta: ******************** Simulation parameters ****************************
siesta:
siesta: The following are some of the parameters of the simulation.
siesta: A complete list of the parameters used, including default values,
siesta: can be found in file out.fdf
siesta:
redata: Non-Collinear-spin run           =     F
redata: SpinPolarized (Up/Down) run      =     F
redata: Number of spin components        =     1
redata: Long output                      =     F
redata: Number of Atomic Species         =        2
redata: Charge density info will appear in .RHO file
redata: Write Mulliken Pop.              =     NO
redata: Mesh Cutoff                      =   200.0000  Ry
redata: Net charge of the system         =     0.0000 |e|
redata: Max. number of SCF Iter          =      500
redata: SCF convergence failure will abort job
redata: Performing Pulay mixing using    =    10 iterations
redata: Mix DM in first SCF step ?       =     F
redata: Write Pulay info on disk?        =     F
redata: Discard 1st Pulay DM after  kick =     F
redata: New DM Mixing Weight             =     0.0500
redata: New DM Occupancy tolerance       = 0.000000000001
redata: No kicks to SCF
redata: DM Mixing Weight for Kicks       =     0.5000
redata: DM Tolerance for SCF             =     0.000100
redata: Require Energy convergence for SCF =     F
redata: DM Energy tolerance for SCF      =     0.000100 eV
redata: Require Harris convergence for SCF =     F
redata: DM Harris energy tolerance for SCF =     0.000100 eV
redata: Using Saved Data (generic)   =     F
redata: Use continuation files for DM    =     T
redata: Neglect nonoverlap interactions  =     F
redata: Method of Calculation            =     Diagonalization
redata: Divide and Conquer               =     T
redata: Electronic Temperature           =     0.0019  Ry
redata: Fix the spin of the system       =     F
redata: Dynamics option                  =     Verlet MD run
redata: Initial MD time step             =        1
redata:   Final MD time step             =        1
redata: Length of MD time step           =     1.0000  fs
redata: Initial Temperature of MD run    =     0.0000  K
redata: Perform a MD quench              =     F
redata: ***********************************************************************
Total number of electrons:   304.000000
Total ionic charge:   304.000000

* ProcessorY, Blocksize:    3  24

k-point displ. along   1 input, could be:     0.50    0.00
k-point displ. along   2 input, could be:     0.50    0.00
 Kpoints in:          231 . Kpoints trimmed:          231

siesta: k-grid: Number of k-points =   231
siesta: k-grid: Cutoff (effective) =     5.000 Ang
siesta: k-grid: Supercell and displacements
siesta: k-grid:   21   0   0      0.500
siesta: k-grid:    0  21   0      0.500
siesta: k-grid:    0   0   1      0.000
Naive supercell factors:     2    2    2

superc: Internal auxiliary supercell:     2 x     2 x     2  =       8
superc: Number of atoms, orbitals, and projectors:    576   7488   9216

* Maximum dynamic memory allocated =     4 MB

siesta:                 ==============================
                            Begin MD step =      1
                        ==============================

superc: Internal auxiliary supercell:     2 x     2 x     2  =       8
superc: Number of atoms, orbitals, and projectors:    576   7488   9216

outcell: Unit cell vectors (Ang):
       12.804619    7.392750    0.000000
        0.000000   14.785500    0.000000
        0.000000    0.000000   10.000000

outcell: Cell vector modules (Ang)   :   14.785500   14.785500   10.000000
outcell: Cell angles (23,13,12) (deg):     90.0000     90.0000     60.0000
outcell: Cell volume (Ang**3)        :   1893.2269
New_DM. Step:     1
Initializing Density Matrix...

InitMesh: MESH =   120 x   120 x    90 =     1296000
InitMesh: Mesh cutoff (required, used) =   200.000   223.865 Ry

* Maximum dynamic memory allocated =   136 MB

stepf: Fermi-Dirac step function

siesta: Program's energy decomposition (eV):
siesta: Ebs     =     -6176.748783
siesta: Eions   =     20974.960578
siesta: Ena     =      4889.402800
siesta: Ekin    =      7720.939539
siesta: Enl     =       170.906463
siesta: DEna    =        -0.000015
siesta: DUscf   =         0.000000
siesta: DUext   =         0.000000
siesta: Exc     =     -4568.550081
siesta: eta*DQ  =         0.000000
siesta: Emadel  =         0.000000
siesta: Emeta   =         0.000000
siesta: Emolmec =         0.000000
siesta: Ekinion =         0.000000
siesta: Eharris =    -12410.284441
siesta: Etot    =    -12762.261872
siesta: FreeEng =    -12762.261872

siesta: iscf   Eharris(eV)      E_KS(eV)   FreeEng(eV)   dDmax  Ef(eV)
siesta:    1   -12410.2844   -12762.2619   -12762.2619  6.0839 -7.0195
timer: Routine,Calls,Time,% = IterSCF        1    3008.789  99.59
elaps: Routine,Calls,Wall,% = IterSCF        1     251.332  99.59
siesta:    2   -18895.5890   -11539.1926   -11539.2575 14.7292 -7.3604
siesta:    3   -12363.5866   -12575.6214   -12575.7155  2.4669 -5.6398
siesta:    4   -12301.4892   -12440.5176   -12440.5617  1.4055 -4.7386
siesta:    5   -12264.4210   -12342.7052   -12342.7559  0.9063 -4.4765
siesta:    6   -12242.3878   -12300.4397   -12300.4657  0.9117 -3.9176
siesta:    7   -12239.9401   -12291.4072   -12291.4461  0.8234 -3.8879
siesta:    8   -12234.4575   -12273.5151   -12273.5764  0.6279 -3.9602
siesta:    9   -12234.2757   -12251.9174   -12251.9786  0.4863 -3.9457
siesta:   10   -12234.3176   -12235.1866   -12235.2499  0.3448 -3.9182
siesta:   11   -12233.3060   -12227.5947   -12227.6522  0.2636 -3.8961
siesta:   12   -12233.3285   -12221.9554   -12222.0297  0.2612 -3.8749
siesta:   13   -12233.0815   -12218.6733   -12218.7507  0.2086 -3.8600
siesta:   14   -12232.5657   -12222.8378   -12222.9150  0.1422 -3.8708
siesta:   15   -12232.2109   -12224.5873   -12224.6595  0.1208 -3.9132
siesta:   16   -12232.1811   -12224.9673   -12225.0483  0.1021 -3.9143
siesta:   17   -12232.1337   -12225.8961   -12225.9674  0.1009 -3.9210
siesta:   18   -12232.0882   -12227.4586   -12227.5397  0.0762 -3.9185
siesta:   19   -12232.0682   -12229.2097   -12229.2884  0.0535 -3.9194
siesta:   20   -12232.0647   -12230.6188   -12230.7001  0.0359 -3.9215
siesta:   21   -12232.0565   -12231.3679   -12231.4473  0.0308 -3.9220
siesta:   22   -12232.0551   -12231.9634   -12232.0437  0.0301 -3.9209
siesta:   23   -12232.0547   -12233.1473   -12233.2274  0.0223 -3.9192
siesta:   24   -12232.0544   -12232.9979   -12233.0778  0.0173 -3.9175
siesta:   25   -12232.0541   -12233.0864   -12233.1667  0.0096 -3.9129
siesta:   26   -12232.0528   -12232.4963   -12232.5766  0.0041 -3.9122
siesta:   27   -12232.0527   -12232.4009   -12232.4816  0.0024 -3.9122
siesta:   28   -12232.0526   -12232.3173   -12232.3977  0.0019 -3.9124
siesta:   29   -12232.0526   -12232.2751   -12232.3556  0.0011 -3.9124
siesta:   30   -12232.0526   -12232.2428   -12232.3233  0.0010 -3.9126
siesta:   31   -12232.0525   -12232.1961   -12232.2766  0.0010 -3.9129
siesta:   32   -12232.0526   -12232.1548   -12232.2354  0.0008 -3.9131
siesta:   33   -12232.0525   -12232.1061   -12232.1866  0.0004 -3.9133
siesta:   34   -12232.0526   -12232.0801   -12232.1606  0.0003 -3.9134
siesta:   35   -12232.0526   -12232.0769   -12232.1574  0.0003 -3.9134
siesta:   36   -12232.0525   -12232.0705   -12232.1510  0.0002 -3.9133
siesta:   37   -12232.0525   -12232.0661   -12232.1466  0.0001 -3.9133

siesta: E_KS(eV) =           -12232.0597

siesta: E_KS - E_eggbox =    -12232.0597

siesta: Atomic forces (eV/Ang):
----------------------------------------
   Tot   -0.028558   -0.169547    0.000000
----------------------------------------
   Max  686.102987
   Res  172.463005    sqrt( Sum f_i^2 / 3N )
----------------------------------------
   Max  686.102987    constrained

Stress-tensor-Voigt (kbar):     -718.91    -3061.20       -0.11      -27.84        0.00        0.00
(Free)E + p*V (eV/cell)   -10743.1794
Target enthalpy (eV/cell)   -12232.1402

siesta: Stress tensor (static) (eV/Ang**3):
        -0.448706   -0.017377    0.000000
        -0.017377   -1.910630    0.000000
         0.000000    0.000000   -0.000066

siesta: Pressure (static):       1260.07299840  kBar

siesta: Stress tensor (total) (eV/Ang**3):
        -0.448706   -0.017377    0.000000
        -0.017377   -1.910630    0.000000
         0.000000    0.000000   -0.000066

siesta: Pressure (total):       1260.07299840  kBar

siesta: Temp_ion =       0.000 K

* Maximum dynamic memory allocated =   148 MB
Computing bands...

siesta: Program's energy decomposition (eV):
siesta: Ebs     =     -4933.914247
siesta: Eions   =     20974.960578
siesta: Ena     =      4889.402800
siesta: Ekin    =     10783.336708
siesta: Enl     =     -1503.945171
siesta: DEna    =      -793.332041
siesta: DUscf   =       109.721853
siesta: DUext   =         0.000000
siesta: Exc     =     -4742.283283
siesta: eta*DQ  =         0.000000
siesta: Emadel  =         0.000000
siesta: Emeta   =         0.000000
siesta: Emolmec =         0.000000
siesta: Ekinion =         0.000000
siesta: Eharris =    -12232.052548
siesta: Etot    =    -12232.059711
siesta: FreeEng =    -12232.140219

siesta: Final energy (eV):
siesta:  Band Struct. =   -4933.914247
siesta:       Kinetic =   10783.336708
siesta:       Hartree =   35153.818576
siesta:    Ext. field =       0.000000
siesta:   Exch.-corr. =   -4742.283283
siesta:  Ion-electron =  -80634.893479
siesta:       Ion-ion =   27207.961766
siesta:       Ekinion =       0.000000
siesta:         Total =  -12232.059711

siesta: Atomic forces (eV/Ang):
siesta:      1  -35.556168  -15.419717    0.000000
siesta:      2   14.598852  685.123517    0.000000
siesta:      3    1.163002   -4.284629    0.000000
siesta:      4    0.427814   -0.450890    0.000000
siesta:      5    1.318967    1.536941    0.000000
siesta:      6   -1.201706    2.343676    0.000000
siesta:      7   -0.814842    0.148385    0.000000
siesta:      8   -1.469084   -1.736419    0.000000
siesta:      9   -0.359643    0.276466    0.000000
siesta:     10    0.721118   -0.398623    0.000000
siesta:     11    1.065446   -2.281599    0.000000
siesta:     12   -1.263501    5.758130    0.000000
siesta:     13  -13.351652 -686.102987    0.000000
siesta:     14   34.210953   10.641476    0.000000
siesta:     15    7.327040 -674.892733    0.000000
siesta:     16   -1.525099  118.302630    0.000000
siesta:     17    7.504492  642.752453    0.000000
siesta:     18   -1.768319 -117.118431    0.000000
siesta:     19    1.615328  127.624080    0.000000
siesta:     20  -21.342494 -553.052606    0.000000
siesta:     21   -2.585969  126.243941    0.000000
siesta:     22   14.531162 -547.228029    0.000000
siesta:     23   26.795374   10.327813    0.000000
siesta:     24   32.640247 -549.077164    0.000000
siesta:     25    2.212387    0.539087    0.000000
siesta:     26   -2.521920    0.458885    0.000000
siesta:     27    1.338919    1.803682    0.000000
siesta:     28   -1.413691    0.797564    0.000000
siesta:     29  -26.877951    6.097677    0.000000
siesta:     30  -34.498464 -549.270962    0.000000
siesta:     31   16.242988  654.235661    0.000000
siesta:     32   -0.619426 -117.109288    0.000000
siesta:     33   34.629609  549.764651    0.000000
siesta:     34   26.157249   -5.850989    0.000000
siesta:     35   -2.878589   -1.933179    0.000000
siesta:     36    2.597026   -0.090366    0.000000
siesta:     37   -1.255572   -0.610858    0.000000
siesta:     38    2.119555   -1.864473    0.000000
siesta:     39   -0.247634    6.783204    0.000000
siesta:     40   -0.328912   -6.708659    0.000000
siesta:     41   -0.240444  544.971750    0.000000
siesta:     42    0.856650 -122.743087    0.000000
siesta:     43   -2.463404  549.169127    0.000000
siesta:     44   -1.511048 -127.313459    0.000000
siesta:     45   25.189463  559.047617    0.000000
siesta:     46   25.479069  -11.249345    0.000000
siesta:     47   -2.035430    3.714473    0.000000
siesta:     48   -0.064607   -1.294312    0.000000
siesta:     49   -1.156930    1.057335    0.000000
siesta:     50   -0.647877   -0.364506    0.000000
siesta:     51  -34.607435  549.079819    0.000000
siesta:     52  -26.077908   -7.072913    0.000000
siesta:     53  -11.687035  560.727261    0.000000
siesta:     54    2.953169   -0.832656    0.000000
siesta:     55   -2.348206   -0.195132    0.000000
siesta:     56    1.330492   -0.812452    0.000000
siesta:     57   -1.278983   -1.886889    0.000000
siesta:     58    0.643812    0.407970    0.000000
siesta:     59    1.146390   -1.138880    0.000000
siesta:     60    0.324064    6.821561    0.000000
siesta:     61    0.302659   -6.832224    0.000000
siesta:     62   -2.068877    1.821702    0.000000
siesta:     63    1.123706    0.632117    0.000000
siesta:     64    0.020624    1.129988    0.000000
siesta:     65    2.211300   -4.067201    0.000000
siesta:     66  -25.996302    9.294440    0.000000
siesta:     67  -24.009546 -559.300874    0.000000
siesta:     68   -2.381616    0.216897    0.000000
siesta:     69    2.745274    1.721958    0.000000
siesta:     70    5.911551 -537.572105    0.000000
siesta:     71   -1.226612  119.781385    0.000000
siesta:     72   -7.801408 -643.166228    0.000000
siesta: ----------------------------------------
siesta:    Tot   -0.028558   -0.169547    0.000000

siesta: Stress tensor (static) (eV/Ang**3):
siesta:    -0.448706   -0.017377    0.000000
siesta:    -0.017377   -1.910630    0.000000
siesta:     0.000000    0.000000   -0.000066

siesta: Cell volume =       1893.226884 Ang**3

siesta: Pressure (static):
siesta:                Solid            Molecule  Units
siesta:           0.00856563          0.13522051  Ry/Bohr**3
siesta:           0.78646720         12.41548749  eV/Ang**3
siesta:        1260.07299840      19892.01896652  kBar
(Free)E+ p_basis*V_orbitals  =      -12203.690019
(Free)Eharris+ p_basis*V_orbitals  =      -12203.676432

siesta: Electric dipole (a.u.)  =    0.000000    0.000000    0.000000
siesta: Electric dipole (Debye) =    0.000000    0.000000    0.000000

* Maximum dynamic memory allocated : Node    0 =   147 MB
* Maximum dynamic memory allocated : Node    1 =    58 MB
* Maximum dynamic memory allocated : Node    2 =    59 MB
* Maximum dynamic memory allocated : Node    3 =   134 MB
* Maximum dynamic memory allocated : Node    4 =   148 MB
* Maximum dynamic memory allocated : Node    5 =    54 MB
* Maximum dynamic memory allocated : Node    6 =    55 MB
* Maximum dynamic memory allocated : Node    7 =   139 MB
* Maximum dynamic memory allocated : Node    8 =   123 MB
* Maximum dynamic memory allocated : Node    9 =    50 MB
* Maximum dynamic memory allocated : Node   10 =    53 MB
* Maximum dynamic memory allocated : Node   11 =   120 MB

* Maximum memory occured during matrixMtoO                    

timer: CPU execution times:
timer:  Routine       Calls   Time/call    Tot.time        %
timer:  siesta            1  109100.849  109100.849   100.00
timer:  Setup             1       3.347       3.347     0.00
timer:  bands             3     226.566     679.697     0.62
timer:  writewave         1       0.022       0.022     0.00
timer:  KSV_init          1       0.004       0.004     0.00
timer:  IterMD            1  108410.789  108410.789    99.37
timer:  hsparse           1       0.167       0.167     0.00
timer:  overlap           1       7.366       7.366     0.01
timer:  IterSCF          37    2926.646  108285.910    99.25
timer:  kinefsm           2       3.731       7.462     0.01
timer:  nlefsm            2      18.471      36.942     0.03
timer:  DHSCF            38      63.061    2396.301     2.20
timer:  DHSCF1            1       0.901       0.901     0.00
timer:  DHSCF2            1      25.065      25.065     0.02
timer:  REORD           306       0.002       0.666     0.00
timer:  POISON           39       0.449      17.518     0.02
timer:  DHSCF3           38      61.830    2349.543     2.15
timer:  rhoofd           38      12.095     459.609     0.42
timer:  cellXC           38       2.428      92.256     0.08
timer:  vmat             38      29.593    1124.548     1.03
timer:  MolMec            2       0.000       0.000     0.00
timer:  diagon           37    2862.322  105905.896    97.07
timer:  c-eigval       8668       5.601   48545.608    44.50
timer:  c-buildHS      8668       0.032     280.092     0.26
timer:  cdiag         17215       5.706   98224.567    90.03
timer:  cdiag1        17215       0.261    4487.501     4.11
timer:  cdiag2        17215       1.838   31642.349    29.00
timer:  cdiag3        17215       3.393   58408.799    53.54
timer:  cdiag4        17215       0.088    1516.496     1.39
timer:  c-eigvec       8547       5.872   50192.203    46.01
timer:  c-buildD       8547       0.913    7800.195     7.15
timer:  DHSCF4            1      20.538      20.538     0.02
timer:  dfscf             1      19.119      19.119     0.02
timer:  overfsm           1       0.284       0.284     0.00
timer:  optical           1       6.407       6.407     0.01
  

elaps: ELAPSED times:
elaps:  Routine       Calls   Time/call    Tot.time        %
elaps:  siesta            1    9113.167    9113.167   100.00
elaps:  Setup             1       0.280       0.280     0.00
elaps:  bands             3      18.940      56.821     0.62
elaps:  writewave         1       0.002       0.002     0.00
elaps:  KSV_init          1       0.000       0.000     0.00
elaps:  IterMD            1    9055.526    9055.526    99.37
elaps:  hsparse           1       0.017       0.017     0.00
elaps:  overlap           1       0.712       0.712     0.01
elaps:  IterSCF          37     244.462    9045.094    99.25
elaps:  kinefsm           2       0.364       0.728     0.01
elaps:  nlefsm            2       1.579       3.159     0.03
elaps:  DHSCF            38       5.312     201.872     2.22
elaps:  DHSCF1            1       0.077       0.077     0.00
elaps:  DHSCF2            1       2.093       2.093     0.02
elaps:  REORD           306       0.000       0.091     0.00
elaps:  POISON           39       0.038       1.471     0.02
elaps:  DHSCF3           38       5.165     196.269     2.15
elaps:  rhoofd           38       2.153      81.818     0.90
elaps:  cellXC           38       0.202       7.688     0.08
elaps:  vmat             38       2.472      93.949     1.03
elaps:  MolMec            2       0.000       0.000     0.00
elaps:  diagon           37     239.097    8846.577    97.07
elaps:  c-eigval       8668       0.468    4054.971    44.50
elaps:  c-buildHS      8668       0.004      30.743     0.34
elaps:  cdiag         17215       0.471    8112.356    89.02
elaps:  cdiag1        17215       0.021     367.242     4.03
elaps:  cdiag2        17215       0.154    2645.508    29.03
elaps:  cdiag3        17215       0.284    4886.348    53.62
elaps:  cdiag4        17215       0.007     120.541     1.32
elaps:  c-eigvec       8547       0.481    4114.480    45.15
elaps:  c-buildD       8547       0.085     729.438     8.00
elaps:  DHSCF4            1       3.391       3.391     0.04
elaps:  dfscf             1       3.203       3.203     0.04
elaps:  overfsm           1       0.031       0.031     0.00
elaps:  optical           1       0.000       0.000     0.00
  
>> End of run:   2-MAY-2016  14:54:51
