Siesta Version:                                        siesta-3.2-pl-3
Architecture  : x86_64-unknown-linux-gnu--unknown
Compiler flags: mpiifort -g -O2 -fPIC -xSSE4.1 -fp-model source -shared-intel 
PARALLEL version

* Running on    8 nodes in parallel
>> Start of run:  20-APR-2016   3:43:02

                           ***********************       
                           *  WELCOME TO SIESTA  *       
                           ***********************       

reinit: Reading from standard input
************************** Dump of input data file ****************************
#(1) General system descriptors
SystemName            GRP_doping    # Descriptive name of the system
SystemLabel           GRP_doping    # Short name for naming files
%include STRUCT.fdf
%include KPT.fdf
%include BASIS.fdf
#%include TS.fdf # for transiesta calculation
#(4) DFT, Grid, SCF
XC.functional         GGA           # LDA or GGA (default = LDA)
XC.authors            PBE           # CA (Ceperley-Aldr) = PZ
                                    #    (Perdew-Zunger) - LDA - Default
                                    # PW92 (Perdew-Wang-92) - LDA
                                    # PBE (Perdew-Burke-Ernzerhof) - GGA
MeshCutoff            200.000000    Ry      # Default: 50.0 Ry ~ 0.444 Bohr
                                    #         100.0 Ry ~ 0.314 Bohr
MaxSCFIterations      500           # Default: 50
DM.MixingWeight       0.05          # Default: 0.25
DM.NumberPulay        10            # Default: 0
DM.PulayOnFile        F             # SystemLabel.P1, SystemLabel.P2
DM.Tolerance          1.d-4         # Default: 1.d-4
DM.UseSaveDM          .true.        # because of the bug
SCFMustConverge       .true.
NeglNonOverlapInt     F             # Default: F
#(5) Eigenvalue problem: order-N or diagonalization
SolutionMethod        Diagon        # or Transiesta
ElectronicTemperature 300.0 K       # Default: 300.0 K
#(6) Molecular dynamics and relaxations
#MD.TypeOfRun          CG            # Type of dynamics:
#MD.VariableCell       F
#MD.NumCGsteps         0           # 0 for single-point / 100 for gopt
#MD.MaxCGDispl         0.2 Bohr      # Default: 0.2 Bohr
#MD.MaxForceTol        0.02 eV/Ang   # Default: 0.04 eV/Ang
#MD.MaxStressTol       1.0 GPa       # Default: 1.0 GPa
# Geometry Constraints
#%block GeometryConstraints
#	position from 1 to 44
#%endblock GeometryConstraints
BandLinesScale   pi/a
%block BandLines
 1   0.00000000  0.00000000  0.00000000
50   0.00000000  0.07809418  0.00000000
50   0.04509075  0.07809242  0.00000000
20   0.00000000  0.00000000  0.00000000
%endblock BandLines
************************** End of input data file *****************************

reinit: -----------------------------------------------------------------------
reinit: System Name: GRP_doping
reinit: -----------------------------------------------------------------------
reinit: System Label: GRP_doping                                                  
reinit: -----------------------------------------------------------------------

initatom: Reading input for the pseudopotentials and atomic orbitals ----------
 Species number:            1  Label: B Atomic number:           5
 Species number:            2  Label: C Atomic number:           6
Ground state valence configuration:   2s02  2p01
Reading pseudopotential information in formatted form from B.psf

Valence configuration for pseudopotential generation:
2s( 2.00) rc: 1.74
2p( 1.00) rc: 1.74
3d( 0.00) rc: 1.74
4f( 0.00) rc: 1.74
Ground state valence configuration:   2s02  2p02
Reading pseudopotential information in formatted form from C.psf

Valence configuration for pseudopotential generation:
2s( 2.00) rc: 1.54
2p( 2.00) rc: 1.54
3d( 0.00) rc: 1.54
4f( 0.00) rc: 1.54
For B, standard SIESTA heuristics set lmxkb to 3
 (one more than the basis l, including polarization orbitals).
Use PS.lmax or PS.KBprojectors blocks to override.
For C, standard SIESTA heuristics set lmxkb to 3
 (one more than the basis l, including polarization orbitals).
Use PS.lmax or PS.KBprojectors blocks to override.

<basis_specs>
===============================================================================
B                    Z=   5    Mass=  10.810        Charge= 0.17977+309
Lmxo=1 Lmxkb= 3    BasisType=split      Semic=F
L=0  Nsemic=0  Cnfigmx=2
          n=1  nzeta=2  polorb=0
            splnorm:   0.15000    
               vcte:    0.0000    
               rinn:    0.0000    
                rcs:    0.0000      0.0000    
            lambdas:    1.0000      1.0000    
L=1  Nsemic=0  Cnfigmx=2
          n=1  nzeta=2  polorb=1
            splnorm:   0.15000    
               vcte:    0.0000    
               rinn:    0.0000    
                rcs:    0.0000      0.0000    
            lambdas:    1.0000      1.0000    
-------------------------------------------------------------------------------
L=0  Nkbl=1  erefs: 0.17977+309
L=1  Nkbl=1  erefs: 0.17977+309
L=2  Nkbl=1  erefs: 0.17977+309
L=3  Nkbl=1  erefs: 0.17977+309
===============================================================================
</basis_specs>

atom: Called for B                     (Z =   5)

read_vps: Pseudopotential generation method:
read_vps: ATM3      Troullier-Martins                       
Total valence charge:    3.00000

read_vps: Pseudopotential includes a core correction:
read_vps: Pseudo-core for xc-correction

xc_check: Exchange-correlation functional:
xc_check: GGA Perdew, Burke & Ernzerhof 1996
V l=0 = -2*Zval/r beyond r=  1.7165
V l=1 = -2*Zval/r beyond r=  1.7165
V l=2 = -2*Zval/r beyond r=  1.7165
V l=3 = -2*Zval/r beyond r=  1.6951
All V_l potentials equal beyond r=  1.7165
This should be close to max(r_c) in ps generation
All pots = -2*Zval/r beyond r=  1.7165

VLOCAL1: 99.0% of the norm of Vloc inside     14.733 Ry
VLOCAL1: 99.9% of the norm of Vloc inside     33.577 Ry
atom: Maximum radius for 4*pi*r*r*local-pseudopot. charge    2.04484
atom: Maximum radius for r*vlocal+2*Zval:    1.75994
GHOST: No ghost state for L =  0
GHOST: No ghost state for L =  1
GHOST: No ghost state for L =  2
GHOST: No ghost state for L =  3

KBgen: Kleinman-Bylander projectors: 
   l= 0   rc=  1.897051   el= -0.693730   Ekb=  4.595746   kbcos=  0.286105
   l= 1   rc=  1.920920   el= -0.265236   Ekb= -2.350715   kbcos= -0.315747
   l= 2   rc=  2.044840   el=  0.002055   Ekb= -0.690767   kbcos= -0.013822
   l= 3   rc=  2.149707   el=  0.003188   Ekb= -0.315358   kbcos= -0.002055

KBgen: Total number of  Kleinman-Bylander projectors:   16
atom: -------------------------------------------------------------------------

atom: SANKEY-TYPE ORBITALS:
atom: Selected multiple-zeta basis: split     

SPLIT: Orbitals with angular momentum L= 0

SPLIT: Basis orbitals for state 2s

SPLIT: PAO cut-off radius determined from an
SPLIT: energy shift=  0.007350 Ry

   izeta = 1
                 lambda =    1.000000
                     rc =    5.422032
                 energy =   -0.686029
                kinetic =    0.576707
    potential(screened) =   -1.262736
       potential(ionic) =   -3.271094

   izeta = 2
                 rmatch =    4.222573
              splitnorm =    0.150000
                 energy =   -0.602132
                kinetic =    0.858975
    potential(screened) =   -1.461107
       potential(ionic) =   -3.582536

SPLIT: Orbitals with angular momentum L= 1

SPLIT: Basis orbitals for state 2p

SPLIT: PAO cut-off radius determined from an
SPLIT: energy shift=  0.007350 Ry

   izeta = 1
                 lambda =    1.000000
                     rc =    6.790259
                 energy =   -0.258578
                kinetic =    1.481412
    potential(screened) =   -1.739989
       potential(ionic) =   -3.657461

   izeta = 2
                 rmatch =    4.608740
              splitnorm =    0.150000
                 energy =   -0.173757
                kinetic =    2.186690
    potential(screened) =   -2.360447
       potential(ionic) =   -4.464260

POLgen: Perturbative polarization orbital with L=  2

POLgen: Polarization orbital for state 2p

   izeta = 1
                     rc =    6.790259
                 energy =    0.684082
                kinetic =    1.471481
    potential(screened) =   -0.787399
       potential(ionic) =   -2.406985
atom: Total number of Sankey-type orbitals: 13

atm_pop: Valence configuration (for local Pseudopot. screening):
 2s( 2.00)                                                            
 2p( 1.00)                                                            
Vna: chval, zval:    3.00000   3.00000

Vna:  Cut-off radius for the neutral-atom potential:   6.790259
comcore: Pseudo-core radius Rcore=  2.122997

atom: _________________________________________________________________________

<basis_specs>
===============================================================================
C                    Z=   6    Mass=  12.010        Charge= 0.17977+309
Lmxo=1 Lmxkb= 3    BasisType=split      Semic=F
L=0  Nsemic=0  Cnfigmx=2
          n=1  nzeta=2  polorb=0
            splnorm:   0.15000    
               vcte:    0.0000    
               rinn:    0.0000    
                rcs:    0.0000      0.0000    
            lambdas:    1.0000      1.0000    
L=1  Nsemic=0  Cnfigmx=2
          n=1  nzeta=2  polorb=1
            splnorm:   0.15000    
               vcte:    0.0000    
               rinn:    0.0000    
                rcs:    0.0000      0.0000    
            lambdas:    1.0000      1.0000    
-------------------------------------------------------------------------------
L=0  Nkbl=1  erefs: 0.17977+309
L=1  Nkbl=1  erefs: 0.17977+309
L=2  Nkbl=1  erefs: 0.17977+309
L=3  Nkbl=1  erefs: 0.17977+309
===============================================================================
</basis_specs>

atom: Called for C                     (Z =   6)

read_vps: Pseudopotential generation method:
read_vps: ATM3      Troullier-Martins                       
Total valence charge:    4.00000

read_vps: Pseudopotential includes a core correction:
read_vps: Pseudo-core for xc-correction

xc_check: Exchange-correlation functional:
xc_check: GGA Perdew, Burke & Ernzerhof 1996
V l=0 = -2*Zval/r beyond r=  1.5227
V l=1 = -2*Zval/r beyond r=  1.5227
V l=2 = -2*Zval/r beyond r=  1.5227
V l=3 = -2*Zval/r beyond r=  1.5038
All V_l potentials equal beyond r=  1.5227
This should be close to max(r_c) in ps generation
All pots = -2*Zval/r beyond r=  1.5227

VLOCAL1: 99.0% of the norm of Vloc inside     18.722 Ry
VLOCAL1: 99.9% of the norm of Vloc inside     42.668 Ry
atom: Maximum radius for 4*pi*r*r*local-pseudopot. charge    1.83678
atom: Maximum radius for r*vlocal+2*Zval:    1.58088
GHOST: No ghost state for L =  0
GHOST: No ghost state for L =  1
GHOST: No ghost state for L =  2
GHOST: No ghost state for L =  3

KBgen: Kleinman-Bylander projectors: 
   l= 0   rc=  1.704034   el= -1.009801   Ekb=  5.335044   kbcos=  0.316824
   l= 1   rc=  1.704034   el= -0.388707   Ekb= -3.785862   kbcos= -0.366464
   l= 2   rc=  1.791422   el=  0.001971   Ekb= -0.970471   kbcos= -0.009212
   l= 3   rc=  1.859892   el=  0.003065   Ekb= -0.399525   kbcos= -0.001223

KBgen: Total number of  Kleinman-Bylander projectors:   16
atom: -------------------------------------------------------------------------

atom: SANKEY-TYPE ORBITALS:
atom: Selected multiple-zeta basis: split     

SPLIT: Orbitals with angular momentum L= 0

SPLIT: Basis orbitals for state 2s

SPLIT: PAO cut-off radius determined from an
SPLIT: energy shift=  0.007350 Ry

   izeta = 1
                 lambda =    1.000000
                     rc =    4.632753
                 energy =   -1.002270
                kinetic =    0.855760
    potential(screened) =   -1.858031
       potential(ionic) =   -5.417575

   izeta = 2
                 rmatch =    3.431921
              splitnorm =    0.150000
                 energy =   -0.867111
                kinetic =    1.300804
    potential(screened) =   -2.167915
       potential(ionic) =   -5.962684

SPLIT: Orbitals with angular momentum L= 1

SPLIT: Basis orbitals for state 2p

SPLIT: PAO cut-off radius determined from an
SPLIT: energy shift=  0.007350 Ry

   izeta = 1
                 lambda =    1.000000
                     rc =    5.658549
                 energy =   -0.381140
                kinetic =    2.399701
    potential(screened) =   -2.780841
       potential(ionic) =   -6.206085

   izeta = 2
                 rmatch =    3.653288
              splitnorm =    0.150000
                 energy =   -0.249149
                kinetic =    3.542762
    potential(screened) =   -3.791911
       potential(ionic) =   -7.581078

POLgen: Perturbative polarization orbital with L=  2

POLgen: Polarization orbital for state 2p

   izeta = 1
                     rc =    5.658549
                 energy =    1.109913
                kinetic =    2.304789
    potential(screened) =   -1.194876
       potential(ionic) =   -4.013592
atom: Total number of Sankey-type orbitals: 13

atm_pop: Valence configuration (for local Pseudopot. screening):
 2s( 2.00)                                                            
 2p( 2.00)                                                            
Vna: chval, zval:    4.00000   4.00000

Vna:  Cut-off radius for the neutral-atom potential:   5.658549
comcore: Pseudo-core radius Rcore=  1.791422

atom: _________________________________________________________________________

prinput: Basis input ----------------------------------------------------------

PAO.BasisType split     

%block ChemicalSpeciesLabel
    1    5 B                       # Species index, atomic number, species label
    2    6 C                       # Species index, atomic number, species label
%endblock ChemicalSpeciesLabel

%block PAO.Basis                 # Define Basis set
B                     2                    # Species label, number of l-shells
 n=2   0   2                         # n, l, Nzeta 
   5.422      4.223   
   1.000      1.000   
 n=2   1   2 P   1                   # n, l, Nzeta, Polarization, NzetaPol
   6.790      4.609   
   1.000      1.000   
C                     2                    # Species label, number of l-shells
 n=2   0   2                         # n, l, Nzeta 
   4.633      3.432   
   1.000      1.000   
 n=2   1   2 P   1                   # n, l, Nzeta, Polarization, NzetaPol
   5.659      3.653   
   1.000      1.000   
%endblock PAO.Basis

prinput: ----------------------------------------------------------------------

coor:   Atomic-coordinates input format  =     Fractional

siesta: Atomic coordinates (Bohr) and species
siesta:     -0.02582   2.59549   0.00000  1        1
siesta:     -0.02582   5.28395   0.00000  1        2
siesta:      2.30256   6.62836   0.00000  1        3
siesta:      2.30256   9.31683   0.00000  1        4
siesta:     -2.35420   6.62836   0.00000  1        5
siesta:     -2.35420   9.31683   0.00000  1        6
siesta:     -0.02582  10.66124   0.00000  1        7
siesta:     -0.02582  13.34970   0.00000  1        8
siesta:     -2.35420  14.69411   0.00000  1        9
siesta:     -2.35420  17.38257   0.00000  1       10
siesta:     -0.02582  18.72698   0.00000  1       11
siesta:     -0.02582  21.41544   0.00000  1       12
siesta:     -4.68258  18.72698   0.00000  1       13
siesta:     -4.68258  21.41544   0.00000  1       14
siesta:     -2.35420  22.75985   0.00000  1       15
siesta:     -2.35420  25.44831   0.00000  1       16
siesta:     -7.01096  22.75985   0.00000  1       17
siesta:     -7.01096  25.44831   0.00000  1       18
siesta:    -11.66772  22.75985   0.00000  1       19
siesta:    -11.66772  25.44831   0.00000  1       20
siesta:     -9.33934  26.79272   0.00000  1       21
siesta:     -9.33934  29.48119   0.00000  1       22
siesta:     -4.68258  26.79272   0.00000  1       23
siesta:     -4.68258  29.48119   0.00000  1       24
siesta:     -7.01096  30.82560   0.00000  1       25
siesta:     -7.01096  33.51406   0.00000  1       26
siesta:     -2.35420  38.89134   0.00000  2       27
siesta:     -2.35420  41.57980   0.00000  2       28
siesta:      2.30256  38.89134   0.00000  2       29
siesta:      2.30256  41.57980   0.00000  2       30
siesta:      4.63094  34.85847   0.00000  2       31
siesta:      4.63094  37.54693   0.00000  2       32
siesta:      6.95932  30.82560   0.00000  2       33
siesta:      6.95932  33.51406   0.00000  2       34
siesta:      9.28770  26.79272   0.00000  2       35
siesta:      9.28770  29.48119   0.00000  2       36
siesta:     -4.68258  34.85847   0.00000  2       37
siesta:     -4.68258  37.54693   0.00000  2       38
siesta:      4.63094  10.66124   0.00000  2       39
siesta:      4.63094  13.34970   0.00000  2       40
siesta:      6.95932  14.69411   0.00000  2       41
siesta:      6.95932  17.38257   0.00000  2       42
siesta:      9.28770  18.72698   0.00000  2       43
siesta:      9.28770  21.41544   0.00000  2       44
siesta:     11.61608  22.75985   0.00000  2       45
siesta:     11.61608  25.44831   0.00000  2       46
siesta:      2.30256  14.69411   0.00000  2       47
siesta:      2.30256  17.38257   0.00000  2       48
siesta:      4.63094  18.72698   0.00000  2       49
siesta:      4.63094  21.41544   0.00000  2       50
siesta:      6.95932  22.75985   0.00000  2       51
siesta:      6.95932  25.44831   0.00000  2       52
siesta:     -4.68258  10.66124   0.00000  2       53
siesta:     -4.68258  13.34970   0.00000  2       54
siesta:      2.30256  22.75985   0.00000  2       55
siesta:      2.30256  25.44831   0.00000  2       56
siesta:     -7.01096  14.69411   0.00000  2       57
siesta:     -7.01096  17.38257   0.00000  2       58
siesta:     -9.33934  18.72698   0.00000  2       59
siesta:     -9.33934  21.41544   0.00000  2       60
siesta:      4.63094  26.79272   0.00000  2       61
siesta:      4.63094  29.48119   0.00000  2       62
siesta:     -0.02582  26.79272   0.00000  2       63
siesta:     -0.02582  29.48119   0.00000  2       64
siesta:      2.30256  30.82560   0.00000  2       65
siesta:      2.30256  33.51406   0.00000  2       66
siesta:     -2.35420  30.82560   0.00000  2       67
siesta:     -2.35420  33.51406   0.00000  2       68
siesta:     -0.02582  34.85847   0.00000  2       69
siesta:     -0.02582  37.54693   0.00000  2       70
siesta:     -0.02582  42.92421   0.00000  2       71
siesta:     -0.02582  45.61267   0.00000  2       72

siesta: System type = slab      

initatomlists: Number of atoms, orbitals, and projectors:     72   936  1152

siesta: ******************** Simulation parameters ****************************
siesta:
siesta: The following are some of the parameters of the simulation.
siesta: A complete list of the parameters used, including default values,
siesta: can be found in file out.fdf
siesta:
redata: Non-Collinear-spin run           =     F
redata: SpinPolarized (Up/Down) run      =     F
redata: Number of spin components        =     1
redata: Long output                      =     F
redata: Number of Atomic Species         =        2
redata: Charge density info will appear in .RHO file
redata: Write Mulliken Pop.              =     NO
redata: Mesh Cutoff                      =   200.0000  Ry
redata: Net charge of the system         =     0.0000 |e|
redata: Max. number of SCF Iter          =      500
redata: SCF convergence failure will abort job
redata: Performing Pulay mixing using    =    10 iterations
redata: Mix DM in first SCF step ?       =     F
redata: Write Pulay info on disk?        =     F
redata: Discard 1st Pulay DM after  kick =     F
redata: New DM Mixing Weight             =     0.0500
redata: New DM Occupancy tolerance       = 0.000000000001
redata: No kicks to SCF
redata: DM Mixing Weight for Kicks       =     0.5000
redata: DM Tolerance for SCF             =     0.000100
redata: Require Energy convergence for SCF =     F
redata: DM Energy tolerance for SCF      =     0.000100 eV
redata: Require Harris convergence for SCF =     F
redata: DM Harris energy tolerance for SCF =     0.000100 eV
redata: Using Saved Data (generic)   =     F
redata: Use continuation files for DM    =     T
redata: Neglect nonoverlap interactions  =     F
redata: Method of Calculation            =     Diagonalization
redata: Divide and Conquer               =     T
redata: Electronic Temperature           =     0.0019  Ry
redata: Fix the spin of the system       =     F
redata: Dynamics option                  =     Verlet MD run
redata: Initial MD time step             =        1
redata:   Final MD time step             =        1
redata: Length of MD time step           =     1.0000  fs
redata: Initial Temperature of MD run    =     0.0000  K
redata: Perform a MD quench              =     F
redata: ***********************************************************************
Total number of electrons:   262.000000
Total ionic charge:   262.000000

* ProcessorY, Blocksize:    2  24

k-point displ. along   1 input, could be:     0.50    0.00
k-point displ. along   2 input, could be:     0.50    0.00
 Kpoints in:          231 . Kpoints trimmed:          231

siesta: k-grid: Number of k-points =   231
siesta: k-grid: Cutoff (effective) =     5.000 Ang
siesta: k-grid: Supercell and displacements
siesta: k-grid:   21   0   0      0.500
siesta: k-grid:    0  21   0      0.500
siesta: k-grid:    0   0   1      0.000
Naive supercell factors:     2    2    2

superc: Internal auxiliary supercell:     2 x     2 x     2  =       8
superc: Number of atoms, orbitals, and projectors:    576   7488   9216

* Maximum dynamic memory allocated =     4 MB

siesta:                 ==============================
                            Begin MD step =      1
                        ==============================

superc: Internal auxiliary supercell:     2 x     2 x     2  =       8
superc: Number of atoms, orbitals, and projectors:    576   7488   9216

outcell: Unit cell vectors (Ang):
       12.804619    7.392750    0.000000
        0.000000   14.785500    0.000000
        0.000000    0.000000   10.000000

outcell: Cell vector modules (Ang)   :   14.785500   14.785500   10.000000
outcell: Cell angles (23,13,12) (deg):     90.0000     90.0000     60.0000
outcell: Cell volume (Ang**3)        :   1893.2269
New_DM. Step:     1
Initializing Density Matrix...

InitMesh: MESH =   120 x   120 x    90 =     1296000
InitMesh: Mesh cutoff (required, used) =   200.000   223.865 Ry

* Maximum dynamic memory allocated =   237 MB

stepf: Fermi-Dirac step function

siesta: Program's energy decomposition (eV):
siesta: Ebs     =     -5403.384952
siesta: Eions   =     15073.536580
siesta: Ena     =      4100.689212
siesta: Ekin    =      5006.990805
siesta: Enl     =       869.781355
siesta: DEna    =        -0.000006
siesta: DUscf   =         0.000000
siesta: DUext   =         0.000000
siesta: Exc     =     -4202.330732
siesta: eta*DQ  =         0.000000
siesta: Emadel  =         0.000000
siesta: Emeta   =         0.000000
siesta: Emolmec =         0.000000
siesta: Ekinion =         0.000000
siesta: Eharris =     -9124.656530
siesta: Etot    =     -9298.405944
siesta: FreeEng =     -9298.405944

siesta: iscf   Eharris(eV)      E_KS(eV)   FreeEng(eV)   dDmax  Ef(eV)
siesta:    1    -9124.6565    -9298.4059    -9298.4059  7.4823 -8.6525
timer: Routine,Calls,Time,% = IterSCF        1    4529.988  99.72
elaps: Routine,Calls,Wall,% = IterSCF        1     567.046  99.72
siesta:    2   -15372.5030    -8172.6092    -8172.6253 21.3086 -5.2887
siesta:    3    -9106.2896    -9144.7052    -9144.7064  2.7749 -6.0415
siesta:    4    -9087.8119    -9044.5640    -9044.5754  1.5120 -5.0195
siesta:    5    -9003.1840    -8952.0141    -8952.0146  1.3976 -4.9121
siesta:    6    -8971.0916    -8920.8731    -8920.8917  1.2092 -5.1944
siesta:    7    -8968.0449    -8914.3338    -8914.3985  1.1863 -4.9401
siesta:    8    -8965.4572    -8914.0611    -8914.1272  1.1256 -5.1927
siesta:    9    -8959.9985    -8913.0412    -8913.1024  0.9502 -5.2368
siesta:   10    -8958.0247    -8911.0463    -8911.0962  0.7307 -5.2044
siesta:   11    -8957.2890    -8910.2529    -8910.3333  0.6593 -5.1898
siesta:   12    -8957.7269    -8912.6822    -8912.7496  0.5201 -5.1868
siesta:   13    -8958.2587    -8913.9378    -8914.0039  0.7795 -5.1325
siesta:   14    -8956.2182    -8920.0552    -8920.1447  0.2562 -5.0008
siesta:   15    -8956.0846    -8923.4890    -8923.5457  0.2013 -5.0742
siesta:   16    -8955.6250    -8924.3516    -8924.4107  0.2149 -5.0804
siesta:   17    -8955.2775    -8927.4424    -8927.4904  0.2159 -5.0963
siesta:   18    -8955.1322    -8931.5928    -8931.6535  0.2154 -5.0855
siesta:   19    -8954.9613    -8932.8596    -8932.9049  0.2017 -5.1145
siesta:   20    -8955.0054    -8933.4267    -8933.4775  0.1958 -5.1024
siesta:   21    -8954.9951    -8935.3577    -8935.3964  0.2276 -5.1042
siesta:   22    -8955.0319    -8935.2537    -8935.2954  0.2632 -5.1059
siesta:   23    -8954.9829    -8937.0995    -8937.1391  0.3288 -5.1048
siesta:   24    -8954.9616    -8939.3763    -8939.4252  0.1168 -5.0819
siesta:   25    -8954.9311    -8948.2804    -8948.3469  0.2833 -5.0888
siesta:   26    -8954.8818    -8948.4501    -8948.5205  0.2204 -5.1023
siesta:   27    -8954.8877    -8950.5829    -8950.6725  0.0988 -5.1021
siesta:   28    -8954.8645    -8952.0680    -8952.1342  0.0716 -5.1228
siesta:   29    -8954.8516    -8952.0643    -8952.1341  0.0694 -5.1308
siesta:   30    -8954.8574    -8953.3356    -8953.4093  0.0243 -5.1353
siesta:   31    -8954.8457    -8954.3190    -8954.3822  0.0387 -5.1419
siesta:   32    -8954.8597    -8955.0937    -8955.1639  0.0284 -5.1440
siesta:   33    -8954.8453    -8955.1990    -8955.2590  0.0247 -5.1495
siesta:   34    -8954.8461    -8955.3954    -8955.4621  0.0127 -5.1471
siesta:   35    -8954.8436    -8955.1788    -8955.2424  0.0091 -5.1432
siesta:   36    -8954.8447    -8955.0721    -8955.1374  0.0101 -5.1379
siesta:   37    -8954.8434    -8955.2311    -8955.2954  0.0047 -5.1357
siesta:   38    -8954.8435    -8955.2206    -8955.2860  0.0045 -5.1367
siesta:   39    -8954.8433    -8954.9866    -8955.0517  0.0037 -5.1388
siesta:   40    -8954.8435    -8954.8896    -8954.9547  0.0025 -5.1388
siesta:   41    -8954.8433    -8954.8838    -8954.9487  0.0015 -5.1396
siesta:   42    -8954.8434    -8954.8539    -8954.9189  0.0012 -5.1393
siesta:   43    -8954.8433    -8954.8453    -8954.9103  0.0008 -5.1393
siesta:   44    -8954.8433    -8954.8413    -8954.9064  0.0006 -5.1392
siesta:   45    -8954.8434    -8954.8376    -8954.9026  0.0006 -5.1392
siesta:   46    -8954.8434    -8954.8380    -8954.9030  0.0003 -5.1392
siesta:   47    -8954.8434    -8954.8388    -8954.9038  0.0002 -5.1394
siesta:   48    -8954.8434    -8954.8396    -8954.9046  0.0001 -5.1393
siesta:   49    -8954.8434    -8954.8403    -8954.9052  0.0001 -5.1394
siesta:   50    -8954.8434    -8954.8409    -8954.9059  0.0001 -5.1394

siesta: E_KS(eV) =            -8954.8422

siesta: E_KS - E_eggbox =     -8954.8422

siesta: Atomic forces (eV/Ang):
----------------------------------------
   Tot   -0.008830   -0.128024    0.000000
----------------------------------------
   Max  556.615301
   Res  134.709754    sqrt( Sum f_i^2 / 3N )
----------------------------------------
   Max  556.615301    constrained

Stress-tensor-Voigt (kbar):     -727.05    -2494.98       -0.72       -6.63        0.00        0.00
(Free)E + p*V (eV/cell)    -7685.5212
Target enthalpy (eV/cell)    -8954.9072

siesta: Stress tensor (static) (eV/Ang**3):
        -0.453784   -0.004137    0.000000
        -0.004137   -1.557228    0.000000
         0.000000    0.000000   -0.000452

siesta: Pressure (static):       1074.25184675  kBar

siesta: Stress tensor (total) (eV/Ang**3):
        -0.453784   -0.004137    0.000000
        -0.004137   -1.557228    0.000000
         0.000000    0.000000   -0.000452

siesta: Pressure (total):       1074.25184675  kBar

siesta: Temp_ion =       0.000 K

* Maximum dynamic memory allocated =   254 MB
Computing bands...

siesta: Program's energy decomposition (eV):
siesta: Ebs     =     -3986.492851
siesta: Eions   =     15073.536580
siesta: Ena     =      4100.689212
siesta: Ekin    =      7783.242921
siesta: Enl     =      -746.424308
siesta: DEna    =      -752.443064
siesta: DUscf   =       100.244777
siesta: DUext   =         0.000000
siesta: Exc     =     -4366.615173
siesta: eta*DQ  =         0.000000
siesta: Emadel  =         0.000000
siesta: Emeta   =         0.000000
siesta: Emolmec =         0.000000
siesta: Ekinion =         0.000000
siesta: Eharris =     -8954.843381
siesta: Etot    =     -8954.842214
siesta: FreeEng =     -8954.907184

siesta: Final energy (eV):
siesta:  Band Struct. =   -3986.492851
siesta:       Kinetic =    7783.242921
siesta:       Hartree =   25151.681961
siesta:    Ext. field =       0.000000
siesta:   Exch.-corr. =   -4366.615173
siesta:  Ion-electron =  -57780.372970
siesta:       Ion-ion =   20257.221047
siesta:       Ekinion =       0.000000
siesta:         Total =   -8954.842214

siesta: Atomic forces (eV/Ang):
siesta:      1    1.773019  407.795705    0.000000
siesta:      2   -0.751912 -105.398858    0.000000
siesta:      3   -3.565991  401.136502    0.000000
siesta:      4   -3.015268 -106.476168    0.000000
siesta:      5    3.598766  402.237163    0.000000
siesta:      6    2.684838 -105.814608    0.000000
siesta:      7   -2.813686  386.083296    0.000000
siesta:      8   -1.280312 -107.012155    0.000000
siesta:      9  -18.559569  401.000216    0.000000
siesta:     10  -14.465762   -1.015782    0.000000
siesta:     11    0.404644  410.623327    0.000000
siesta:     12    4.928861    1.949218    0.000000
siesta:     13   -3.149456   -2.429530    0.000000
siesta:     14    2.937326    0.334611    0.000000
siesta:     15   -2.858949   -1.271510    0.000000
siesta:     16    5.279719    4.415718    0.000000
siesta:     17   -2.857203   -2.798135    0.000000
siesta:     18   -0.228071    1.524936    0.000000
siesta:     19   -2.114570   -4.990656    0.000000
siesta:     20   -6.058217    3.933909    0.000000
siesta:     21   -3.904895    0.415225    0.000000
siesta:     22   -4.759126    1.658461    0.000000
siesta:     23   -0.252741   -0.930770    0.000000
siesta:     24    5.492670    3.095889    0.000000
siesta:     25   -3.671906    2.802029    0.000000
siesta:     26    0.268157    5.057138    0.000000
siesta:     27    3.812344  120.407354    0.000000
siesta:     28  -16.662004 -407.382052    0.000000
siesta:     29   -2.755084  127.662419    0.000000
siesta:     30   25.175341 -556.615301    0.000000
siesta:     31   24.324049    2.049101    0.000000
siesta:     32   35.685180 -549.886986    0.000000
siesta:     33    2.339932    0.026884    0.000000
siesta:     34   -1.768460    2.779278    0.000000
siesta:     35    2.301391    1.674324    0.000000
siesta:     36   -0.999260    0.705124    0.000000
siesta:     37  -21.142243    5.032605    0.000000
siesta:     38  -35.165148 -551.699558    0.000000
siesta:     39   26.100907  543.608529    0.000000
siesta:     40   25.822099   -4.683395    0.000000
siesta:     41   -2.103766   -2.386364    0.000000
siesta:     42    1.876495    0.233714    0.000000
siesta:     43   -0.607829   -0.650680    0.000000
siesta:     44    1.895244   -2.076158    0.000000
siesta:     45    0.401347    6.163387    0.000000
siesta:     46   -0.614448   -6.115335    0.000000
siesta:     47   14.074237  554.661020    0.000000
siesta:     48   21.888304   -2.336575    0.000000
siesta:     49   -1.095461    1.587053    0.000000
siesta:     50    0.732882    0.322632    0.000000
siesta:     51   -0.301875    0.542801    0.000000
siesta:     52   -0.347187   -0.759714    0.000000
siesta:     53  -23.344746  546.277506    0.000000
siesta:     54  -23.969572    0.559170    0.000000
siesta:     55    1.804308    0.870210    0.000000
siesta:     56    0.195138    0.840626    0.000000
siesta:     57    1.995226   -2.432650    0.000000
siesta:     58   -6.003814   -2.578534    0.000000
siesta:     59    1.439127    1.129713    0.000000
siesta:     60   -4.149706   -6.383839    0.000000
siesta:     61    0.419014    0.036489    0.000000
siesta:     62   -1.454483   -1.135295    0.000000
siesta:     63    2.346662   -0.779422    0.000000
siesta:     64   -0.555350 -417.230136    0.000000
siesta:     65   21.998427    1.740023    0.000000
siesta:     66   27.188517 -415.194589    0.000000
siesta:     67  -19.919511    1.883387    0.000000
siesta:     68  -27.041098 -416.995133    0.000000
siesta:     69    0.594889  119.324689    0.000000
siesta:     70    0.100953 -404.361886    0.000000
siesta:     71   -9.385141  124.507090    0.000000
siesta:     72    1.804976 -408.994721    0.000000
siesta: ----------------------------------------
siesta:    Tot   -0.008830   -0.128024    0.000000

siesta: Stress tensor (static) (eV/Ang**3):
siesta:    -0.453784   -0.004137    0.000000
siesta:    -0.004137   -1.557228    0.000000
siesta:     0.000000    0.000000   -0.000452

siesta: Cell volume =       1893.226884 Ang**3

siesta: Pressure (static):
siesta:                Solid            Molecule  Units
siesta:           0.00730247          0.10286306  Ry/Bohr**3
siesta:           0.67048802          9.44453657  eV/Ang**3
siesta:        1074.25184675      15131.97936887  kBar
(Free)E+ p_basis*V_orbitals  =       -8915.954779
(Free)Eharris+ p_basis*V_orbitals  =       -8915.957231

siesta: Electric dipole (a.u.)  =    0.000000    0.000000    0.000000
siesta: Electric dipole (Debye) =    0.000000    0.000000    0.000000

* Maximum dynamic memory allocated : Node    0 =   254 MB
* Maximum dynamic memory allocated : Node    1 =    89 MB
* Maximum dynamic memory allocated : Node    2 =    92 MB
* Maximum dynamic memory allocated : Node    3 =   241 MB
* Maximum dynamic memory allocated : Node    4 =   231 MB
* Maximum dynamic memory allocated : Node    5 =    86 MB
* Maximum dynamic memory allocated : Node    6 =    87 MB
* Maximum dynamic memory allocated : Node    7 =   211 MB

* Maximum memory occured during matrixMtoO                    

timer: CPU execution times:
timer:  Routine       Calls   Time/call    Tot.time        %
timer:  siesta            1  222296.319  222296.319   100.00
timer:  Setup             1       3.769       3.769     0.00
timer:  bands             3     269.447     808.341     0.36
timer:  writewave         1       0.040       0.040     0.00
timer:  KSV_init          1       0.008       0.008     0.00
timer:  IterMD            1  221478.512  221478.512    99.63
timer:  hsparse           1       0.395       0.395     0.00
timer:  overlap           1       7.818       7.818     0.00
timer:  IterSCF          50    4424.450  221222.487    99.52
timer:  kinefsm           2       4.118       8.235     0.00
timer:  nlefsm            2      22.172      44.343     0.02
timer:  DHSCF            51     132.965    6781.238     3.05
timer:  DHSCF1            1       0.993       0.993     0.00
timer:  DHSCF2            1      47.244      47.244     0.02
timer:  REORD           410       0.010       4.121     0.00
timer:  POISON           52       2.239     116.450     0.05
timer:  DHSCF3           51     131.069    6684.533     3.01
timer:  rhoofd           51      27.371    1395.924     0.63
timer:  cellXC           51       3.491     178.064     0.08
timer:  vmat             51      64.590    3294.077     1.48
timer:  MolMec            2       0.000       0.000     0.00
timer:  diagon           50    4289.997  214499.845    96.49
timer:  c-eigval      11671       6.678   77938.718    35.06
timer:  c-buildHS     11671       0.123    1439.082     0.65
timer:  cdiag         23221       6.865  159406.114    71.71
timer:  cdiag1        23221       0.429    9963.664     4.48
timer:  cdiag2        23221       1.910   44360.287    19.96
timer:  cdiag3        23221       3.937   91431.353    41.13
timer:  cdiag4        23221       0.223    5180.607     2.33
timer:  c-eigvec      11550       7.253   83774.670    37.69
timer:  c-buildD      11550       4.635   53531.593    24.08
timer:  DHSCF4            1      45.738      45.738     0.02
timer:  dfscf             1      43.016      43.016     0.02
timer:  overfsm           1       0.484       0.484     0.00
timer:  optical           1       4.998       4.998     0.00
  

elaps: ELAPSED times:
elaps:  Routine       Calls   Time/call    Tot.time        %
elaps:  siesta            1   27820.957   27820.957   100.00
elaps:  Setup             1       0.487       0.487     0.00
elaps:  bands             3      33.734     101.202     0.36
elaps:  writewave         1       0.005       0.005     0.00
elaps:  KSV_init          1       0.001       0.001     0.00
elaps:  IterMD            1   27718.608   27718.608    99.63
elaps:  hsparse           1       0.048       0.048     0.00
elaps:  overlap           1       0.986       0.986     0.00
elaps:  IterSCF          50     553.734   27686.720    99.52
elaps:  kinefsm           2       0.509       1.018     0.00
elaps:  nlefsm            2       2.770       5.540     0.02
elaps:  DHSCF            51      16.749     854.220     3.07
elaps:  DHSCF1            1       0.127       0.127     0.00
elaps:  DHSCF2            1       5.911       5.911     0.02
elaps:  REORD           410       0.001       0.551     0.00
elaps:  POISON           52       0.280      14.573     0.05
elaps:  DHSCF3           51      16.397     836.231     3.01
elaps:  rhoofd           51       7.460     380.467     1.37
elaps:  cellXC           51       0.436      22.239     0.08
elaps:  vmat             51       8.080     412.068     1.48
elaps:  MolMec            2       0.000       0.000     0.00
elaps:  diagon           50     536.920   26845.983    96.50
elaps:  c-eigval      11671       0.836    9751.756    35.05
elaps:  c-buildHS     11671       0.017     196.989     0.71
elaps:  cdiag         23221       0.848   19691.364    70.78
elaps:  cdiag1        23221       0.053    1233.105     4.43
elaps:  cdiag2        23221       0.239    5550.619    19.95
elaps:  cdiag3        23221       0.493   11455.884    41.18
elaps:  cdiag4        23221       0.028     646.605     2.32
elaps:  c-eigvec      11550       0.890   10274.006    36.93
elaps:  c-buildD      11550       0.598    6912.036    24.84
elaps:  DHSCF4            1      11.581      11.581     0.04
elaps:  dfscf             1      11.034      11.034     0.04
elaps:  overfsm           1       0.060       0.060     0.00
elaps:  optical           1       0.001       0.001     0.00
  
>> End of run:  20-APR-2016  11:26:43
