Siesta Version:                                        siesta-3.2-pl-3
Architecture  : x86_64-unknown-linux-gnu--unknown
Compiler flags: mpiifort -g -O2 -fPIC -xSSE4.1 -fp-model source -shared-intel 
PARALLEL version

* Running on    8 nodes in parallel
>> Start of run:  22-APR-2016  17:19:29

                           ***********************       
                           *  WELCOME TO SIESTA  *       
                           ***********************       

reinit: Reading from standard input
************************** Dump of input data file ****************************
#(1) General system descriptors
SystemName            GRP_doping    # Descriptive name of the system
SystemLabel           GRP_doping    # Short name for naming files
%include STRUCT.fdf
%include KPT.fdf
%include BASIS.fdf
#%include TS.fdf # for transiesta calculation
#(4) DFT, Grid, SCF
XC.functional         GGA           # LDA or GGA (default = LDA)
XC.authors            PBE           # CA (Ceperley-Aldr) = PZ
                                    #    (Perdew-Zunger) - LDA - Default
                                    # PW92 (Perdew-Wang-92) - LDA
                                    # PBE (Perdew-Burke-Ernzerhof) - GGA
MeshCutoff            200.000000    Ry      # Default: 50.0 Ry ~ 0.444 Bohr
                                    #         100.0 Ry ~ 0.314 Bohr
MaxSCFIterations      500           # Default: 50
DM.MixingWeight       0.05          # Default: 0.25
DM.NumberPulay        10            # Default: 0
DM.PulayOnFile        F             # SystemLabel.P1, SystemLabel.P2
DM.Tolerance          1.d-4         # Default: 1.d-4
DM.UseSaveDM          .true.        # because of the bug
SCFMustConverge       .true.
NeglNonOverlapInt     F             # Default: F
#(5) Eigenvalue problem: order-N or diagonalization
SolutionMethod        Diagon        # or Transiesta
ElectronicTemperature 300.0 K       # Default: 300.0 K
#(6) Molecular dynamics and relaxations
#MD.TypeOfRun          CG            # Type of dynamics:
#MD.VariableCell       F
#MD.NumCGsteps         0           # 0 for single-point / 100 for gopt
#MD.MaxCGDispl         0.2 Bohr      # Default: 0.2 Bohr
#MD.MaxForceTol        0.02 eV/Ang   # Default: 0.04 eV/Ang
#MD.MaxStressTol       1.0 GPa       # Default: 1.0 GPa
# Geometry Constraints
#%block GeometryConstraints
#	position from 1 to 44
#%endblock GeometryConstraints
BandLinesScale   pi/a
%block BandLines
 1   0.00000000  0.00000000  0.00000000
50   0.00000000  0.07809418  0.00000000
50   0.04509075  0.07809242  0.00000000
20   0.00000000  0.00000000  0.00000000
%endblock BandLines
************************** End of input data file *****************************

reinit: -----------------------------------------------------------------------
reinit: System Name: GRP_doping
reinit: -----------------------------------------------------------------------
reinit: System Label: GRP_doping                                                  
reinit: -----------------------------------------------------------------------

initatom: Reading input for the pseudopotentials and atomic orbitals ----------
 Species number:            1  Label: B Atomic number:           5
 Species number:            2  Label: C Atomic number:           6
Ground state valence configuration:   2s02  2p01
Reading pseudopotential information in formatted form from B.psf

Valence configuration for pseudopotential generation:
2s( 2.00) rc: 1.74
2p( 1.00) rc: 1.74
3d( 0.00) rc: 1.74
4f( 0.00) rc: 1.74
Ground state valence configuration:   2s02  2p02
Reading pseudopotential information in formatted form from C.psf

Valence configuration for pseudopotential generation:
2s( 2.00) rc: 1.54
2p( 2.00) rc: 1.54
3d( 0.00) rc: 1.54
4f( 0.00) rc: 1.54
For B, standard SIESTA heuristics set lmxkb to 3
 (one more than the basis l, including polarization orbitals).
Use PS.lmax or PS.KBprojectors blocks to override.
For C, standard SIESTA heuristics set lmxkb to 3
 (one more than the basis l, including polarization orbitals).
Use PS.lmax or PS.KBprojectors blocks to override.

<basis_specs>
===============================================================================
B                    Z=   5    Mass=  10.810        Charge= 0.17977+309
Lmxo=1 Lmxkb= 3    BasisType=split      Semic=F
L=0  Nsemic=0  Cnfigmx=2
          n=1  nzeta=2  polorb=0
            splnorm:   0.15000    
               vcte:    0.0000    
               rinn:    0.0000    
                rcs:    0.0000      0.0000    
            lambdas:    1.0000      1.0000    
L=1  Nsemic=0  Cnfigmx=2
          n=1  nzeta=2  polorb=1
            splnorm:   0.15000    
               vcte:    0.0000    
               rinn:    0.0000    
                rcs:    0.0000      0.0000    
            lambdas:    1.0000      1.0000    
-------------------------------------------------------------------------------
L=0  Nkbl=1  erefs: 0.17977+309
L=1  Nkbl=1  erefs: 0.17977+309
L=2  Nkbl=1  erefs: 0.17977+309
L=3  Nkbl=1  erefs: 0.17977+309
===============================================================================
</basis_specs>

atom: Called for B                     (Z =   5)

read_vps: Pseudopotential generation method:
read_vps: ATM3      Troullier-Martins                       
Total valence charge:    3.00000

read_vps: Pseudopotential includes a core correction:
read_vps: Pseudo-core for xc-correction

xc_check: Exchange-correlation functional:
xc_check: GGA Perdew, Burke & Ernzerhof 1996
V l=0 = -2*Zval/r beyond r=  1.7165
V l=1 = -2*Zval/r beyond r=  1.7165
V l=2 = -2*Zval/r beyond r=  1.7165
V l=3 = -2*Zval/r beyond r=  1.6951
All V_l potentials equal beyond r=  1.7165
This should be close to max(r_c) in ps generation
All pots = -2*Zval/r beyond r=  1.7165

VLOCAL1: 99.0% of the norm of Vloc inside     14.733 Ry
VLOCAL1: 99.9% of the norm of Vloc inside     33.577 Ry
atom: Maximum radius for 4*pi*r*r*local-pseudopot. charge    2.04484
atom: Maximum radius for r*vlocal+2*Zval:    1.75994
GHOST: No ghost state for L =  0
GHOST: No ghost state for L =  1
GHOST: No ghost state for L =  2
GHOST: No ghost state for L =  3

KBgen: Kleinman-Bylander projectors: 
   l= 0   rc=  1.897051   el= -0.693730   Ekb=  4.595746   kbcos=  0.286105
   l= 1   rc=  1.920920   el= -0.265236   Ekb= -2.350715   kbcos= -0.315747
   l= 2   rc=  2.044840   el=  0.002055   Ekb= -0.690767   kbcos= -0.013822
   l= 3   rc=  2.149707   el=  0.003188   Ekb= -0.315358   kbcos= -0.002055

KBgen: Total number of  Kleinman-Bylander projectors:   16
atom: -------------------------------------------------------------------------

atom: SANKEY-TYPE ORBITALS:
atom: Selected multiple-zeta basis: split     

SPLIT: Orbitals with angular momentum L= 0

SPLIT: Basis orbitals for state 2s

SPLIT: PAO cut-off radius determined from an
SPLIT: energy shift=  0.007350 Ry

   izeta = 1
                 lambda =    1.000000
                     rc =    5.422032
                 energy =   -0.686029
                kinetic =    0.576707
    potential(screened) =   -1.262736
       potential(ionic) =   -3.271094

   izeta = 2
                 rmatch =    4.222573
              splitnorm =    0.150000
                 energy =   -0.602132
                kinetic =    0.858975
    potential(screened) =   -1.461107
       potential(ionic) =   -3.582536

SPLIT: Orbitals with angular momentum L= 1

SPLIT: Basis orbitals for state 2p

SPLIT: PAO cut-off radius determined from an
SPLIT: energy shift=  0.007350 Ry

   izeta = 1
                 lambda =    1.000000
                     rc =    6.790259
                 energy =   -0.258578
                kinetic =    1.481412
    potential(screened) =   -1.739989
       potential(ionic) =   -3.657461

   izeta = 2
                 rmatch =    4.608740
              splitnorm =    0.150000
                 energy =   -0.173757
                kinetic =    2.186690
    potential(screened) =   -2.360447
       potential(ionic) =   -4.464260

POLgen: Perturbative polarization orbital with L=  2

POLgen: Polarization orbital for state 2p

   izeta = 1
                     rc =    6.790259
                 energy =    0.684082
                kinetic =    1.471481
    potential(screened) =   -0.787399
       potential(ionic) =   -2.406985
atom: Total number of Sankey-type orbitals: 13

atm_pop: Valence configuration (for local Pseudopot. screening):
 2s( 2.00)                                                            
 2p( 1.00)                                                            
Vna: chval, zval:    3.00000   3.00000

Vna:  Cut-off radius for the neutral-atom potential:   6.790259
comcore: Pseudo-core radius Rcore=  2.122997

atom: _________________________________________________________________________

<basis_specs>
===============================================================================
C                    Z=   6    Mass=  12.010        Charge= 0.17977+309
Lmxo=1 Lmxkb= 3    BasisType=split      Semic=F
L=0  Nsemic=0  Cnfigmx=2
          n=1  nzeta=2  polorb=0
            splnorm:   0.15000    
               vcte:    0.0000    
               rinn:    0.0000    
                rcs:    0.0000      0.0000    
            lambdas:    1.0000      1.0000    
L=1  Nsemic=0  Cnfigmx=2
          n=1  nzeta=2  polorb=1
            splnorm:   0.15000    
               vcte:    0.0000    
               rinn:    0.0000    
                rcs:    0.0000      0.0000    
            lambdas:    1.0000      1.0000    
-------------------------------------------------------------------------------
L=0  Nkbl=1  erefs: 0.17977+309
L=1  Nkbl=1  erefs: 0.17977+309
L=2  Nkbl=1  erefs: 0.17977+309
L=3  Nkbl=1  erefs: 0.17977+309
===============================================================================
</basis_specs>

atom: Called for C                     (Z =   6)

read_vps: Pseudopotential generation method:
read_vps: ATM3      Troullier-Martins                       
Total valence charge:    4.00000

read_vps: Pseudopotential includes a core correction:
read_vps: Pseudo-core for xc-correction

xc_check: Exchange-correlation functional:
xc_check: GGA Perdew, Burke & Ernzerhof 1996
V l=0 = -2*Zval/r beyond r=  1.5227
V l=1 = -2*Zval/r beyond r=  1.5227
V l=2 = -2*Zval/r beyond r=  1.5227
V l=3 = -2*Zval/r beyond r=  1.5038
All V_l potentials equal beyond r=  1.5227
This should be close to max(r_c) in ps generation
All pots = -2*Zval/r beyond r=  1.5227

VLOCAL1: 99.0% of the norm of Vloc inside     18.722 Ry
VLOCAL1: 99.9% of the norm of Vloc inside     42.668 Ry
atom: Maximum radius for 4*pi*r*r*local-pseudopot. charge    1.83678
atom: Maximum radius for r*vlocal+2*Zval:    1.58088
GHOST: No ghost state for L =  0
GHOST: No ghost state for L =  1
GHOST: No ghost state for L =  2
GHOST: No ghost state for L =  3

KBgen: Kleinman-Bylander projectors: 
   l= 0   rc=  1.704034   el= -1.009801   Ekb=  5.335044   kbcos=  0.316824
   l= 1   rc=  1.704034   el= -0.388707   Ekb= -3.785862   kbcos= -0.366464
   l= 2   rc=  1.791422   el=  0.001971   Ekb= -0.970471   kbcos= -0.009212
   l= 3   rc=  1.859892   el=  0.003065   Ekb= -0.399525   kbcos= -0.001223

KBgen: Total number of  Kleinman-Bylander projectors:   16
atom: -------------------------------------------------------------------------

atom: SANKEY-TYPE ORBITALS:
atom: Selected multiple-zeta basis: split     

SPLIT: Orbitals with angular momentum L= 0

SPLIT: Basis orbitals for state 2s

SPLIT: PAO cut-off radius determined from an
SPLIT: energy shift=  0.007350 Ry

   izeta = 1
                 lambda =    1.000000
                     rc =    4.632753
                 energy =   -1.002270
                kinetic =    0.855760
    potential(screened) =   -1.858031
       potential(ionic) =   -5.417575

   izeta = 2
                 rmatch =    3.431921
              splitnorm =    0.150000
                 energy =   -0.867111
                kinetic =    1.300804
    potential(screened) =   -2.167915
       potential(ionic) =   -5.962684

SPLIT: Orbitals with angular momentum L= 1

SPLIT: Basis orbitals for state 2p

SPLIT: PAO cut-off radius determined from an
SPLIT: energy shift=  0.007350 Ry

   izeta = 1
                 lambda =    1.000000
                     rc =    5.658549
                 energy =   -0.381140
                kinetic =    2.399701
    potential(screened) =   -2.780841
       potential(ionic) =   -6.206085

   izeta = 2
                 rmatch =    3.653288
              splitnorm =    0.150000
                 energy =   -0.249149
                kinetic =    3.542762
    potential(screened) =   -3.791911
       potential(ionic) =   -7.581078

POLgen: Perturbative polarization orbital with L=  2

POLgen: Polarization orbital for state 2p

   izeta = 1
                     rc =    5.658549
                 energy =    1.109913
                kinetic =    2.304789
    potential(screened) =   -1.194876
       potential(ionic) =   -4.013592
atom: Total number of Sankey-type orbitals: 13

atm_pop: Valence configuration (for local Pseudopot. screening):
 2s( 2.00)                                                            
 2p( 2.00)                                                            
Vna: chval, zval:    4.00000   4.00000

Vna:  Cut-off radius for the neutral-atom potential:   5.658549
comcore: Pseudo-core radius Rcore=  1.791422

atom: _________________________________________________________________________

prinput: Basis input ----------------------------------------------------------

PAO.BasisType split     

%block ChemicalSpeciesLabel
    1    5 B                       # Species index, atomic number, species label
    2    6 C                       # Species index, atomic number, species label
%endblock ChemicalSpeciesLabel

%block PAO.Basis                 # Define Basis set
B                     2                    # Species label, number of l-shells
 n=2   0   2                         # n, l, Nzeta 
   5.422      4.223   
   1.000      1.000   
 n=2   1   2 P   1                   # n, l, Nzeta, Polarization, NzetaPol
   6.790      4.609   
   1.000      1.000   
C                     2                    # Species label, number of l-shells
 n=2   0   2                         # n, l, Nzeta 
   4.633      3.432   
   1.000      1.000   
 n=2   1   2 P   1                   # n, l, Nzeta, Polarization, NzetaPol
   5.659      3.653   
   1.000      1.000   
%endblock PAO.Basis

prinput: ----------------------------------------------------------------------

coor:   Atomic-coordinates input format  =     Fractional

siesta: Atomic coordinates (Bohr) and species
siesta:     -0.02582   2.59549   0.00000  1        1
siesta:      4.63094  34.85847   0.00000  1        2
siesta:      4.63094  37.54693   0.00000  1        3
siesta:      6.95932  30.82560   0.00000  1        4
siesta:      6.95932  33.51406   0.00000  1        5
siesta:      9.28770  26.79272   0.00000  1        6
siesta:      9.28770  29.48119   0.00000  1        7
siesta:      4.63094  13.34970   0.00000  1        8
siesta:      6.95932  14.69411   0.00000  1        9
siesta:      6.95932  17.38257   0.00000  1       10
siesta:      9.28770  18.72698   0.00000  1       11
siesta:      9.28770  21.41544   0.00000  1       12
siesta:     11.61608  22.75985   0.00000  1       13
siesta:     11.61608  25.44831   0.00000  1       14
siesta:      2.30256  14.69411   0.00000  1       15
siesta:      2.30256  17.38257   0.00000  1       16
siesta:     -0.02582  18.72698   0.00000  1       17
siesta:     -0.02582  21.41544   0.00000  1       18
siesta:     -2.35420  22.75985   0.00000  1       19
siesta:     -2.35420  25.44831   0.00000  1       20
siesta:    -11.66772  22.75985   0.00000  1       21
siesta:     -0.02582  26.79272   0.00000  1       22
siesta:     -0.02582  29.48119   0.00000  1       23
siesta:      2.30256  30.82560   0.00000  1       24
siesta:      2.30256  33.51406   0.00000  1       25
siesta:     -0.02582  45.61267   0.00000  1       26
siesta:     -0.02582   5.28395   0.00000  2       27
siesta:     -2.35420  38.89134   0.00000  2       28
siesta:     -2.35420  41.57980   0.00000  2       29
siesta:      2.30256  38.89134   0.00000  2       30
siesta:      2.30256  41.57980   0.00000  2       31
siesta:     -4.68258  34.85847   0.00000  2       32
siesta:     -4.68258  37.54693   0.00000  2       33
siesta:      2.30256   6.62836   0.00000  2       34
siesta:      2.30256   9.31683   0.00000  2       35
siesta:      4.63094  10.66124   0.00000  2       36
siesta:     -2.35420   6.62836   0.00000  2       37
siesta:     -2.35420   9.31683   0.00000  2       38
siesta:     -0.02582  10.66124   0.00000  2       39
siesta:     -0.02582  13.34970   0.00000  2       40
siesta:      4.63094  18.72698   0.00000  2       41
siesta:      4.63094  21.41544   0.00000  2       42
siesta:      6.95932  22.75985   0.00000  2       43
siesta:      6.95932  25.44831   0.00000  2       44
siesta:     -4.68258  10.66124   0.00000  2       45
siesta:     -4.68258  13.34970   0.00000  2       46
siesta:     -2.35420  14.69411   0.00000  2       47
siesta:     -2.35420  17.38257   0.00000  2       48
siesta:      2.30256  22.75985   0.00000  2       49
siesta:      2.30256  25.44831   0.00000  2       50
siesta:     -7.01096  14.69411   0.00000  2       51
siesta:     -7.01096  17.38257   0.00000  2       52
siesta:     -4.68258  18.72698   0.00000  2       53
siesta:     -4.68258  21.41544   0.00000  2       54
siesta:     -9.33934  18.72698   0.00000  2       55
siesta:     -9.33934  21.41544   0.00000  2       56
siesta:     -7.01096  22.75985   0.00000  2       57
siesta:     -7.01096  25.44831   0.00000  2       58
siesta:    -11.66772  25.44831   0.00000  2       59
siesta:     -9.33934  26.79272   0.00000  2       60
siesta:     -9.33934  29.48119   0.00000  2       61
siesta:      4.63094  26.79272   0.00000  2       62
siesta:      4.63094  29.48119   0.00000  2       63
siesta:     -4.68258  26.79272   0.00000  2       64
siesta:     -4.68258  29.48119   0.00000  2       65
siesta:     -2.35420  30.82560   0.00000  2       66
siesta:     -2.35420  33.51406   0.00000  2       67
siesta:     -7.01096  30.82560   0.00000  2       68
siesta:     -7.01096  33.51406   0.00000  2       69
siesta:     -0.02582  34.85847   0.00000  2       70
siesta:     -0.02582  37.54693   0.00000  2       71
siesta:     -0.02582  42.92421   0.00000  2       72

siesta: System type = slab      

initatomlists: Number of atoms, orbitals, and projectors:     72   936  1152

siesta: ******************** Simulation parameters ****************************
siesta:
siesta: The following are some of the parameters of the simulation.
siesta: A complete list of the parameters used, including default values,
siesta: can be found in file out.fdf
siesta:
redata: Non-Collinear-spin run           =     F
redata: SpinPolarized (Up/Down) run      =     F
redata: Number of spin components        =     1
redata: Long output                      =     F
redata: Number of Atomic Species         =        2
redata: Charge density info will appear in .RHO file
redata: Write Mulliken Pop.              =     NO
redata: Mesh Cutoff                      =   200.0000  Ry
redata: Net charge of the system         =     0.0000 |e|
redata: Max. number of SCF Iter          =      500
redata: SCF convergence failure will abort job
redata: Performing Pulay mixing using    =    10 iterations
redata: Mix DM in first SCF step ?       =     F
redata: Write Pulay info on disk?        =     F
redata: Discard 1st Pulay DM after  kick =     F
redata: New DM Mixing Weight             =     0.0500
redata: New DM Occupancy tolerance       = 0.000000000001
redata: No kicks to SCF
redata: DM Mixing Weight for Kicks       =     0.5000
redata: DM Tolerance for SCF             =     0.000100
redata: Require Energy convergence for SCF =     F
redata: DM Energy tolerance for SCF      =     0.000100 eV
redata: Require Harris convergence for SCF =     F
redata: DM Harris energy tolerance for SCF =     0.000100 eV
redata: Using Saved Data (generic)   =     F
redata: Use continuation files for DM    =     T
redata: Neglect nonoverlap interactions  =     F
redata: Method of Calculation            =     Diagonalization
redata: Divide and Conquer               =     T
redata: Electronic Temperature           =     0.0019  Ry
redata: Fix the spin of the system       =     F
redata: Dynamics option                  =     Verlet MD run
redata: Initial MD time step             =        1
redata:   Final MD time step             =        1
redata: Length of MD time step           =     1.0000  fs
redata: Initial Temperature of MD run    =     0.0000  K
redata: Perform a MD quench              =     F
redata: ***********************************************************************
Total number of electrons:   262.000000
Total ionic charge:   262.000000

* ProcessorY, Blocksize:    2  24

k-point displ. along   1 input, could be:     0.50    0.00
k-point displ. along   2 input, could be:     0.50    0.00
 Kpoints in:          231 . Kpoints trimmed:          231

siesta: k-grid: Number of k-points =   231
siesta: k-grid: Cutoff (effective) =     5.000 Ang
siesta: k-grid: Supercell and displacements
siesta: k-grid:   21   0   0      0.500
siesta: k-grid:    0  21   0      0.500
siesta: k-grid:    0   0   1      0.000
Naive supercell factors:     2    2    2

superc: Internal auxiliary supercell:     2 x     2 x     2  =       8
superc: Number of atoms, orbitals, and projectors:    576   7488   9216

* Maximum dynamic memory allocated =     4 MB

siesta:                 ==============================
                            Begin MD step =      1
                        ==============================

superc: Internal auxiliary supercell:     2 x     2 x     2  =       8
superc: Number of atoms, orbitals, and projectors:    576   7488   9216

outcell: Unit cell vectors (Ang):
       12.804619    7.392750    0.000000
        0.000000   14.785500    0.000000
        0.000000    0.000000   10.000000

outcell: Cell vector modules (Ang)   :   14.785500   14.785500   10.000000
outcell: Cell angles (23,13,12) (deg):     90.0000     90.0000     60.0000
outcell: Cell volume (Ang**3)        :   1893.2269
New_DM. Step:     1
Initializing Density Matrix...

InitMesh: MESH =   120 x   120 x    90 =     1296000
InitMesh: Mesh cutoff (required, used) =   200.000   223.865 Ry

* Maximum dynamic memory allocated =   232 MB

stepf: Fermi-Dirac step function

siesta: Program's energy decomposition (eV):
siesta: Ebs     =     -5390.071479
siesta: Eions   =     15073.536580
siesta: Ena     =      4068.715133
siesta: Ekin    =      5006.990805
siesta: Enl     =       841.734134
siesta: DEna    =        -0.000006
siesta: DUscf   =         0.000000
siesta: DUext   =         0.000000
siesta: Exc     =     -4208.323677
siesta: eta*DQ  =         0.000000
siesta: Emadel  =         0.000000
siesta: Emeta   =         0.000000
siesta: Emolmec =         0.000000
siesta: Ekinion =         0.000000
siesta: Eharris =     -9120.601050
siesta: Etot    =     -9364.420191
siesta: FreeEng =     -9364.420191

siesta: iscf   Eharris(eV)      E_KS(eV)   FreeEng(eV)   dDmax  Ef(eV)
siesta:    1    -9120.6010    -9364.4202    -9364.4202  6.5909 -8.6995
timer: Routine,Calls,Time,% = IterSCF        1    3493.220  99.69
elaps: Routine,Calls,Wall,% = IterSCF        1     437.501  99.69
siesta:    2   -13814.3150    -8400.7704    -8400.8134 18.0760 -3.6034
siesta:    3    -9073.0388    -9198.5155    -9198.5181  2.4488 -6.2901
siesta:    4    -9052.2473    -9086.5982    -9086.6183  1.3383 -5.4591
siesta:    5    -8998.5015    -9034.9105    -9034.9514  0.9431 -5.5783
siesta:    6    -8981.7371    -9001.8950    -9001.9467  0.7736 -5.5218
siesta:    7    -8978.6937    -8990.0236    -8990.0718  0.7244 -5.5469
siesta:    8    -8970.3244    -8978.1008    -8978.1533  0.6112 -5.6682
siesta:    9    -8969.6647    -8961.0103    -8961.1061  0.5756 -5.3911
siesta:   10    -8968.4283    -8957.4003    -8957.4019  0.3793 -5.4951
siesta:   11    -8969.7929    -8953.3587    -8953.4160  0.3244 -5.3544
siesta:   12    -8968.9866    -8951.8815    -8951.9251  0.2647 -5.3784
siesta:   13    -8968.6036    -8949.8861    -8949.9115  0.4101 -5.3288
siesta:   14    -8968.3819    -8952.2690    -8952.3317  0.1785 -5.3447
siesta:   15    -8968.0189    -8953.1011    -8953.1621  0.2938 -5.3538
siesta:   16    -8968.4747    -8955.3174    -8955.3896  0.2076 -5.3470
siesta:   17    -8967.9756    -8957.3555    -8957.4148  0.2264 -5.3644
siesta:   18    -8967.3954    -8958.2420    -8958.3250  0.1338 -5.4060
siesta:   19    -8967.2025    -8959.3313    -8959.4124  0.3965 -5.3960
siesta:   20    -8966.9940    -8960.8093    -8960.8749  0.2796 -5.4237
siesta:   21    -8966.8977    -8961.4274    -8961.5029  0.1181 -5.4534
siesta:   22    -8966.9544    -8961.8213    -8961.9024  0.1779 -5.4536
siesta:   23    -8966.9094    -8962.6711    -8962.7310  0.1702 -5.4620
siesta:   24    -8966.8452    -8963.8182    -8963.8797  0.1531 -5.4493
siesta:   25    -8966.8165    -8964.3792    -8964.4549  0.1242 -5.4524
siesta:   26    -8966.7979    -8964.3704    -8964.4468  0.0642 -5.4508
siesta:   27    -8966.7951    -8964.6304    -8964.7101  0.0412 -5.4516
siesta:   28    -8966.7908    -8964.6997    -8964.7809  0.0579 -5.4457
siesta:   29    -8966.7887    -8965.0818    -8965.1639  0.0578 -5.4425
siesta:   30    -8966.7871    -8965.5488    -8965.6337  0.0219 -5.4474
siesta:   31    -8966.7849    -8965.6975    -8965.7813  0.0173 -5.4474
siesta:   32    -8966.7836    -8966.0258    -8966.1101  0.0117 -5.4493
siesta:   33    -8966.7832    -8966.3248    -8966.4095  0.0079 -5.4507
siesta:   34    -8966.7841    -8966.4573    -8966.5424  0.0062 -5.4540
siesta:   35    -8966.7838    -8966.4888    -8966.5728  0.0027 -5.4539
siesta:   36    -8966.7840    -8966.5887    -8966.6729  0.0046 -5.4544
siesta:   37    -8966.7839    -8966.6135    -8966.6974  0.0013 -5.4539
siesta:   38    -8966.7838    -8966.6543    -8966.7383  0.0009 -5.4536
siesta:   39    -8966.7838    -8966.6745    -8966.7586  0.0005 -5.4536
siesta:   40    -8966.7838    -8966.7240    -8966.8080  0.0008 -5.4535
siesta:   41    -8966.7837    -8966.7495    -8966.8335  0.0004 -5.4533
siesta:   42    -8966.7837    -8966.7677    -8966.8518  0.0002 -5.4532
siesta:   43    -8966.7837    -8966.7701    -8966.8542  0.0001 -5.4531
siesta:   44    -8966.7837    -8966.7718    -8966.8559  0.0001 -5.4531

siesta: E_KS(eV) =            -8966.7781

siesta: E_KS - E_eggbox =     -8966.7781

siesta: Atomic forces (eV/Ang):
----------------------------------------
   Tot   -0.339836    0.110747    0.000000
----------------------------------------
   Max  559.105463
   Res  134.723131    sqrt( Sum f_i^2 / 3N )
----------------------------------------
   Max  559.105463    constrained

Stress-tensor-Voigt (kbar):     -815.74    -2508.53       -0.78        0.16        0.00        0.00
(Free)E + p*V (eV/cell)    -7657.1845
Target enthalpy (eV/cell)    -8966.8622

siesta: Stress tensor (static) (eV/Ang**3):
        -0.509137    0.000100    0.000000
         0.000100   -1.565687    0.000000
         0.000000    0.000000   -0.000486

siesta: Pressure (static):       1108.34980956  kBar

siesta: Stress tensor (total) (eV/Ang**3):
        -0.509137    0.000100    0.000000
         0.000100   -1.565687    0.000000
         0.000000    0.000000   -0.000486

siesta: Pressure (total):       1108.34980956  kBar

siesta: Temp_ion =       0.000 K

* Maximum dynamic memory allocated =   249 MB
Computing bands...

siesta: Program's energy decomposition (eV):
siesta: Ebs     =     -3973.312134
siesta: Eions   =     15073.536580
siesta: Ena     =      4068.715133
siesta: Ekin    =      7825.768695
siesta: Enl     =      -731.845531
siesta: DEna    =      -783.936511
siesta: DUscf   =       109.246689
siesta: DUext   =         0.000000
siesta: Exc     =     -4381.190013
siesta: eta*DQ  =         0.000000
siesta: Emadel  =         0.000000
siesta: Emeta   =         0.000000
siesta: Emolmec =         0.000000
siesta: Ekinion =         0.000000
siesta: Eharris =     -8966.783745
siesta: Etot    =     -8966.778118
siesta: FreeEng =     -8966.862195

siesta: Final energy (eV):
siesta:  Band Struct. =   -3973.312134
siesta:       Kinetic =    7825.768695
siesta:       Hartree =   26042.302962
siesta:    Ext. field =       0.000000
siesta:   Exch.-corr. =   -4381.190013
siesta:  Ion-electron =  -59570.868757
siesta:       Ion-ion =   21117.208994
siesta:       Ekinion =       0.000000
siesta:         Total =   -8966.778118

siesta: Atomic forces (eV/Ang):
siesta:      1   -4.496702  297.600003    0.000000
siesta:      2   15.371594   -0.594637    0.000000
siesta:      3   26.035432 -405.023128    0.000000
siesta:      4   -1.068170    1.493056    0.000000
siesta:      5    3.745784    3.267789    0.000000
siesta:      6    0.494996   -0.863091    0.000000
siesta:      7    5.085258    1.712127    0.000000
siesta:      8   15.255014    1.019029    0.000000
siesta:      9    3.841222   -2.926158    0.000000
siesta:     10   -0.860357   -1.479665    0.000000
siesta:     11    4.990824   -1.788272    0.000000
siesta:     12    0.363315    1.037945    0.000000
siesta:     13    6.127532   -2.761436    0.000000
siesta:     14    6.085600    2.863697    0.000000
siesta:     15   20.860726  405.895297    0.000000
siesta:     16   20.404416    1.238766    0.000000
siesta:     17    1.541279  302.580348    0.000000
siesta:     18    3.551766    3.066938    0.000000
siesta:     19   -3.531910   -4.955611    0.000000
siesta:     20   -3.779538    4.903249    0.000000
siesta:     21   -2.385556    3.080636    0.000000
siesta:     22    3.606780   -3.040348    0.000000
siesta:     23    1.574068 -302.552953    0.000000
siesta:     24   20.611858   -1.299329    0.000000
siesta:     25   22.178983 -404.141519    0.000000
siesta:     26   -4.442214 -297.647955    0.000000
siesta:     27    5.342414 -121.777728    0.000000
siesta:     28    1.669776  127.902260    0.000000
siesta:     29  -22.061874 -552.853520    0.000000
siesta:     30   10.199956  116.555021    0.000000
siesta:     31   17.896177 -408.671617    0.000000
siesta:     32  -25.401807    4.860265    0.000000
siesta:     33  -34.051236 -549.348023    0.000000
siesta:     34   15.630470  406.640946    0.000000
siesta:     35    6.464266 -120.434569    0.000000
siesta:     36   30.683279  406.761928    0.000000
siesta:     37  -22.159604  553.174967    0.000000
siesta:     38   -0.026923 -127.811289    0.000000
siesta:     39   -5.536684  548.404957    0.000000
siesta:     40    5.773242 -117.398375    0.000000
siesta:     41   -1.385758    2.924498    0.000000
siesta:     42   -0.307354    0.962468    0.000000
siesta:     43   -3.268136    1.403611    0.000000
siesta:     44   -3.503500   -1.436678    0.000000
siesta:     45  -34.081331  549.127588    0.000000
siesta:     46  -25.263643   -4.971393    0.000000
siesta:     47  -20.672311  559.054495    0.000000
siesta:     48  -24.580002   -2.532381    0.000000
siesta:     49    3.127214    0.401631    0.000000
siesta:     50    3.007343   -0.529097    0.000000
siesta:     51    2.594500   -1.699689    0.000000
siesta:     52   -3.107739   -1.086192    0.000000
siesta:     53    1.563216    1.656216    0.000000
siesta:     54   -3.185870   -0.491670    0.000000
siesta:     55    1.080230    0.312131    0.000000
siesta:     56    0.829894   -3.770056    0.000000
siesta:     57   -0.173178    0.337904    0.000000
siesta:     58    0.207656   -0.445427    0.000000
siesta:     59   -0.059280   -0.689580    0.000000
siesta:     60   -2.881602    1.002387    0.000000
siesta:     61    1.150805    0.800184    0.000000
siesta:     62   -0.082542   -0.981025    0.000000
siesta:     63   -1.490398   -2.921742    0.000000
siesta:     64   -3.289562    0.526620    0.000000
siesta:     65    1.740956   -1.542252    0.000000
siesta:     66  -24.724316    2.402234    0.000000
siesta:     67  -20.480759 -559.105463    0.000000
siesta:     68   -3.204890    0.446240    0.000000
siesta:     69    2.588526    1.954137    0.000000
siesta:     70    5.918276  117.644441    0.000000
siesta:     71    0.846069 -547.124273    0.000000
siesta:     72    5.164198  121.790877    0.000000
siesta: ----------------------------------------
siesta:    Tot   -0.339836    0.110747    0.000000

siesta: Stress tensor (static) (eV/Ang**3):
siesta:    -0.509137    0.000100    0.000000
siesta:     0.000100   -1.565687    0.000000
siesta:     0.000000    0.000000   -0.000486

siesta: Cell volume =       1893.226884 Ang**3

siesta: Pressure (static):
siesta:                Solid            Molecule  Units
siesta:           0.00753426          0.10059050  Ry/Bohr**3
siesta:           0.69177006          9.23587760  eV/Ang**3
siesta:        1108.34980956      14797.66723858  kBar
(Free)E+ p_basis*V_orbitals  =       -8927.909790
(Free)Eharris+ p_basis*V_orbitals  =       -8927.921703

siesta: Electric dipole (a.u.)  =    0.000000    0.000000    0.000000
siesta: Electric dipole (Debye) =    0.000000    0.000000    0.000000

* Maximum dynamic memory allocated : Node    0 =   249 MB
* Maximum dynamic memory allocated : Node    1 =    88 MB
* Maximum dynamic memory allocated : Node    2 =    90 MB
* Maximum dynamic memory allocated : Node    3 =   236 MB
* Maximum dynamic memory allocated : Node    4 =   238 MB
* Maximum dynamic memory allocated : Node    5 =    87 MB
* Maximum dynamic memory allocated : Node    6 =    88 MB
* Maximum dynamic memory allocated : Node    7 =   217 MB

* Maximum memory occured during matrixMtoO                    

timer: CPU execution times:
timer:  Routine       Calls   Time/call    Tot.time        %
timer:  siesta            1  151937.793  151937.793   100.00
timer:  Setup             1       2.703       2.703     0.00
timer:  bands             3     243.607     730.820     0.48
timer:  writewave         1       0.017       0.017     0.00
timer:  KSV_init          1       0.006       0.006     0.00
timer:  IterMD            1  151199.051  151199.051    99.51
timer:  hsparse           1       0.513       0.513     0.00
timer:  overlap           1       7.214       7.214     0.00
timer:  IterSCF          44    3431.385  150980.928    99.37
timer:  kinefsm           2       3.762       7.524     0.00
timer:  nlefsm            2      21.280      42.559     0.03
timer:  DHSCF            45     112.752    5073.824     3.34
timer:  DHSCF1            1       0.989       0.989     0.00
timer:  DHSCF2            1      43.268      43.268     0.03
timer:  REORD           362       0.005       1.841     0.00
timer:  POISON           46       0.874      40.210     0.03
timer:  DHSCF3           45     110.790    4985.533     3.28
timer:  rhoofd           45      25.340    1140.309     0.75
timer:  cellXC           45       3.287     147.903     0.10
timer:  vmat             45      52.530    2363.856     1.56
timer:  MolMec            2       0.000       0.000     0.00
timer:  diagon           44    3318.027  145993.176    96.09
timer:  c-eigval      10285       6.030   62017.765    40.82
timer:  c-buildHS     10285       0.054     556.779     0.37
timer:  cdiag         20449       6.161  125981.953    82.92
timer:  cdiag1        20449       0.386    7884.809     5.19
timer:  cdiag2        20449       1.768   36147.777    23.79
timer:  cdiag3        20449       3.730   76278.829    50.20
timer:  cdiag4        20449       0.152    3117.330     2.05
timer:  c-eigvec      10164       6.394   64993.008    42.78
timer:  c-buildD      10164       1.934   19661.192    12.94
timer:  DHSCF4            1      43.201      43.201     0.03
timer:  dfscf             1      40.352      40.352     0.03
timer:  overfsm           1       0.473       0.473     0.00
timer:  optical           1       4.562       4.562     0.00
  

elaps: ELAPSED times:
elaps:  Routine       Calls   Time/call    Tot.time        %
elaps:  siesta            1   19028.542   19028.542   100.00
elaps:  Setup             1       0.340       0.340     0.00
elaps:  bands             3      30.526      91.578     0.48
elaps:  writewave         1       0.002       0.002     0.00
elaps:  KSV_init          1       0.000       0.000     0.00
elaps:  IterMD            1   18936.021   18936.021    99.51
elaps:  hsparse           1       0.065       0.065     0.00
elaps:  overlap           1       0.909       0.909     0.00
elaps:  IterSCF          44     429.743   18908.705    99.37
elaps:  kinefsm           2       0.475       0.949     0.00
elaps:  nlefsm            2       2.630       5.260     0.03
elaps:  DHSCF            45      14.236     640.627     3.37
elaps:  DHSCF1            1       0.127       0.127     0.00
elaps:  DHSCF2            1       5.417       5.417     0.03
elaps:  REORD           362       0.001       0.242     0.00
elaps:  POISON           46       0.110       5.065     0.03
elaps:  DHSCF3           45      13.876     624.411     3.28
elaps:  rhoofd           45       6.753     303.865     1.60
elaps:  cellXC           45       0.411      18.510     0.10
elaps:  vmat             45       6.579     296.057     1.56
elaps:  MolMec            2       0.000       0.000     0.00
elaps:  diagon           44     415.555   18284.404    96.09
elaps:  c-eigval      10285       0.755    7766.992    40.82
elaps:  c-buildHS     10285       0.007      75.663     0.40
elaps:  cdiag         20449       0.767   15687.513    82.44
elaps:  cdiag1        20449       0.048     988.968     5.20
elaps:  cdiag2        20449       0.221    4527.995    23.80
elaps:  cdiag3        20449       0.468    9565.765    50.27
elaps:  cdiag4        20449       0.019     387.512     2.04
elaps:  c-eigvec      10164       0.793    8059.592    42.36
elaps:  c-buildD      10164       0.250    2542.237    13.36
elaps:  DHSCF4            1      10.572      10.572     0.06
elaps:  dfscf             1      10.003      10.003     0.05
elaps:  overfsm           1       0.062       0.062     0.00
elaps:  optical           1       0.000       0.000     0.00
  
>> End of run:  22-APR-2016  22:36:38
