Siesta Version:                                        siesta-3.2-pl-3
Architecture  : x86_64-unknown-linux-gnu--unknown
Compiler flags: mpiifort -g -O2 -fPIC -xSSE4.1 -fp-model source -shared-intel 
PARALLEL version

* Running on    8 nodes in parallel
>> Start of run:  26-APR-2016  15:17:20

                           ***********************       
                           *  WELCOME TO SIESTA  *       
                           ***********************       

reinit: Reading from standard input
************************** Dump of input data file ****************************
#(1) General system descriptors
SystemName            GRP_doping    # Descriptive name of the system
SystemLabel           GRP_doping    # Short name for naming files
%include STRUCT.fdf
%include KPT.fdf
%include BASIS.fdf
#%include TS.fdf # for transiesta calculation
#(4) DFT, Grid, SCF
XC.functional         GGA           # LDA or GGA (default = LDA)
XC.authors            PBE           # CA (Ceperley-Aldr) = PZ
                                    #    (Perdew-Zunger) - LDA - Default
                                    # PW92 (Perdew-Wang-92) - LDA
                                    # PBE (Perdew-Burke-Ernzerhof) - GGA
MeshCutoff            200.000000    Ry      # Default: 50.0 Ry ~ 0.444 Bohr
                                    #         100.0 Ry ~ 0.314 Bohr
MaxSCFIterations      500           # Default: 50
DM.MixingWeight       0.05          # Default: 0.25
DM.NumberPulay        10            # Default: 0
DM.PulayOnFile        F             # SystemLabel.P1, SystemLabel.P2
DM.Tolerance          1.d-4         # Default: 1.d-4
DM.UseSaveDM          .true.        # because of the bug
SCFMustConverge       .true.
NeglNonOverlapInt     F             # Default: F
#(5) Eigenvalue problem: order-N or diagonalization
SolutionMethod        Diagon        # or Transiesta
ElectronicTemperature 300.0 K       # Default: 300.0 K
#(6) Molecular dynamics and relaxations
#MD.TypeOfRun          CG            # Type of dynamics:
#MD.VariableCell       F
#MD.NumCGsteps         0           # 0 for single-point / 100 for gopt
#MD.MaxCGDispl         0.2 Bohr      # Default: 0.2 Bohr
#MD.MaxForceTol        0.02 eV/Ang   # Default: 0.04 eV/Ang
#MD.MaxStressTol       1.0 GPa       # Default: 1.0 GPa
# Geometry Constraints
#%block GeometryConstraints
#	position from 1 to 44
#%endblock GeometryConstraints
BandLinesScale   pi/a
%block BandLines
 1   0.00000000  0.00000000  0.00000000
50   0.00000000  0.07809418  0.00000000
50   0.04509075  0.07809242  0.00000000
20   0.00000000  0.00000000  0.00000000
%endblock BandLines
************************** End of input data file *****************************

reinit: -----------------------------------------------------------------------
reinit: System Name: GRP_doping
reinit: -----------------------------------------------------------------------
reinit: System Label: GRP_doping                                                  
reinit: -----------------------------------------------------------------------

initatom: Reading input for the pseudopotentials and atomic orbitals ----------
 Species number:            1  Label: N Atomic number:           7
 Species number:            2  Label: C Atomic number:           6
Ground state valence configuration:   2s02  2p03
Reading pseudopotential information in formatted form from N.psf

Valence configuration for pseudopotential generation:
2s( 2.00) rc: 1.48
2p( 3.00) rc: 1.48
3d( 0.00) rc: 1.48
4f( 0.00) rc: 1.48
Ground state valence configuration:   2s02  2p02
Reading pseudopotential information in formatted form from C.psf

Valence configuration for pseudopotential generation:
2s( 2.00) rc: 1.54
2p( 2.00) rc: 1.54
3d( 0.00) rc: 1.54
4f( 0.00) rc: 1.54
For N, standard SIESTA heuristics set lmxkb to 3
 (one more than the basis l, including polarization orbitals).
Use PS.lmax or PS.KBprojectors blocks to override.
For C, standard SIESTA heuristics set lmxkb to 3
 (one more than the basis l, including polarization orbitals).
Use PS.lmax or PS.KBprojectors blocks to override.

<basis_specs>
===============================================================================
N                    Z=   7    Mass=  14.010        Charge= 0.17977+309
Lmxo=1 Lmxkb= 3    BasisType=split      Semic=F
L=0  Nsemic=0  Cnfigmx=2
          n=1  nzeta=2  polorb=0
            splnorm:   0.15000    
               vcte:    0.0000    
               rinn:    0.0000    
                rcs:    0.0000      0.0000    
            lambdas:    1.0000      1.0000    
L=1  Nsemic=0  Cnfigmx=2
          n=1  nzeta=2  polorb=1
            splnorm:   0.15000    
               vcte:    0.0000    
               rinn:    0.0000    
                rcs:    0.0000      0.0000    
            lambdas:    1.0000      1.0000    
-------------------------------------------------------------------------------
L=0  Nkbl=1  erefs: 0.17977+309
L=1  Nkbl=1  erefs: 0.17977+309
L=2  Nkbl=1  erefs: 0.17977+309
L=3  Nkbl=1  erefs: 0.17977+309
===============================================================================
</basis_specs>

atom: Called for N                     (Z =   7)

read_vps: Pseudopotential generation method:
read_vps: ATM3      Troullier-Martins                       
Total valence charge:    5.00000

read_vps: Pseudopotential includes a core correction:
read_vps: Pseudo-core for xc-correction

xc_check: Exchange-correlation functional:
xc_check: GGA Perdew, Burke & Ernzerhof 1996
V l=0 = -2*Zval/r beyond r=  1.4606
V l=1 = -2*Zval/r beyond r=  1.4606
V l=2 = -2*Zval/r beyond r=  1.4606
V l=3 = -2*Zval/r beyond r=  1.4606
All V_l potentials equal beyond r=  1.4606
This should be close to max(r_c) in ps generation
All pots = -2*Zval/r beyond r=  1.4606

VLOCAL1: 99.0% of the norm of Vloc inside     20.347 Ry
VLOCAL1: 99.9% of the norm of Vloc inside     46.372 Ry
atom: Maximum radius for 4*pi*r*r*local-pseudopot. charge    1.76189
atom: Maximum radius for r*vlocal+2*Zval:    1.53550
GHOST: No ghost state for L =  0
GHOST: No ghost state for L =  1
GHOST: No ghost state for L =  2
GHOST: No ghost state for L =  3

KBgen: Kleinman-Bylander projectors: 
   l= 0   rc=  1.634559   el= -1.363963   Ekb=  5.296955   kbcos=  0.335621
   l= 1   rc=  1.614250   el= -0.521451   Ekb= -5.259161   kbcos= -0.433408
   l= 2   rc=  1.718383   el=  0.001991   Ekb= -1.271464   kbcos= -0.007566
   l= 3   rc=  1.761893   el=  0.003093   Ekb= -0.494769   kbcos= -0.001015

KBgen: Total number of  Kleinman-Bylander projectors:   16
atom: -------------------------------------------------------------------------

atom: SANKEY-TYPE ORBITALS:
atom: Selected multiple-zeta basis: split     

SPLIT: Orbitals with angular momentum L= 0

SPLIT: Basis orbitals for state 2s

SPLIT: PAO cut-off radius determined from an
SPLIT: energy shift=  0.007350 Ry

   izeta = 1
                 lambda =    1.000000
                     rc =    4.071465
                 energy =   -1.356470
                kinetic =    1.176977
    potential(screened) =   -2.533447
       potential(ionic) =   -8.057990

   izeta = 2
                 rmatch =    2.905100
              splitnorm =    0.150000
                 energy =   -1.158343
                kinetic =    1.813009
    potential(screened) =   -2.971352
       potential(ionic) =   -8.901931

SPLIT: Orbitals with angular momentum L= 1

SPLIT: Basis orbitals for state 2p

SPLIT: PAO cut-off radius determined from an
SPLIT: energy shift=  0.007350 Ry

   izeta = 1
                 lambda =    1.000000
                     rc =    4.972977
                 energy =   -0.513884
                kinetic =    3.441732
    potential(screened) =   -3.955616
       potential(ionic) =   -9.287901

   izeta = 2
                 rmatch =    3.054066
              splitnorm =    0.150000
                 energy =   -0.318226
                kinetic =    5.125348
    potential(screened) =   -5.443573
       potential(ionic) =  -11.380999

POLgen: Perturbative polarization orbital with L=  2

POLgen: Polarization orbital for state 2p

   izeta = 1
                     rc =    4.972977
                 energy =    1.607437
                kinetic =    3.268125
    potential(screened) =   -1.660688
       potential(ionic) =   -5.973652
atom: Total number of Sankey-type orbitals: 13

atm_pop: Valence configuration (for local Pseudopot. screening):
 2s( 2.00)                                                            
 2p( 3.00)                                                            
Vna: chval, zval:    5.00000   5.00000

Vna:  Cut-off radius for the neutral-atom potential:   4.972977
comcore: Pseudo-core radius Rcore=  1.554824

atom: _________________________________________________________________________

<basis_specs>
===============================================================================
C                    Z=   6    Mass=  12.010        Charge= 0.17977+309
Lmxo=1 Lmxkb= 3    BasisType=split      Semic=F
L=0  Nsemic=0  Cnfigmx=2
          n=1  nzeta=2  polorb=0
            splnorm:   0.15000    
               vcte:    0.0000    
               rinn:    0.0000    
                rcs:    0.0000      0.0000    
            lambdas:    1.0000      1.0000    
L=1  Nsemic=0  Cnfigmx=2
          n=1  nzeta=2  polorb=1
            splnorm:   0.15000    
               vcte:    0.0000    
               rinn:    0.0000    
                rcs:    0.0000      0.0000    
            lambdas:    1.0000      1.0000    
-------------------------------------------------------------------------------
L=0  Nkbl=1  erefs: 0.17977+309
L=1  Nkbl=1  erefs: 0.17977+309
L=2  Nkbl=1  erefs: 0.17977+309
L=3  Nkbl=1  erefs: 0.17977+309
===============================================================================
</basis_specs>

atom: Called for C                     (Z =   6)

read_vps: Pseudopotential generation method:
read_vps: ATM3      Troullier-Martins                       
Total valence charge:    4.00000

read_vps: Pseudopotential includes a core correction:
read_vps: Pseudo-core for xc-correction

xc_check: Exchange-correlation functional:
xc_check: GGA Perdew, Burke & Ernzerhof 1996
V l=0 = -2*Zval/r beyond r=  1.5227
V l=1 = -2*Zval/r beyond r=  1.5227
V l=2 = -2*Zval/r beyond r=  1.5227
V l=3 = -2*Zval/r beyond r=  1.5038
All V_l potentials equal beyond r=  1.5227
This should be close to max(r_c) in ps generation
All pots = -2*Zval/r beyond r=  1.5227

VLOCAL1: 99.0% of the norm of Vloc inside     18.722 Ry
VLOCAL1: 99.9% of the norm of Vloc inside     42.668 Ry
atom: Maximum radius for 4*pi*r*r*local-pseudopot. charge    1.83678
atom: Maximum radius for r*vlocal+2*Zval:    1.58088
GHOST: No ghost state for L =  0
GHOST: No ghost state for L =  1
GHOST: No ghost state for L =  2
GHOST: No ghost state for L =  3

KBgen: Kleinman-Bylander projectors: 
   l= 0   rc=  1.704034   el= -1.009801   Ekb=  5.335044   kbcos=  0.316824
   l= 1   rc=  1.704034   el= -0.388707   Ekb= -3.785862   kbcos= -0.366464
   l= 2   rc=  1.791422   el=  0.001971   Ekb= -0.970471   kbcos= -0.009212
   l= 3   rc=  1.859892   el=  0.003065   Ekb= -0.399525   kbcos= -0.001223

KBgen: Total number of  Kleinman-Bylander projectors:   16
atom: -------------------------------------------------------------------------

atom: SANKEY-TYPE ORBITALS:
atom: Selected multiple-zeta basis: split     

SPLIT: Orbitals with angular momentum L= 0

SPLIT: Basis orbitals for state 2s

SPLIT: PAO cut-off radius determined from an
SPLIT: energy shift=  0.007350 Ry

   izeta = 1
                 lambda =    1.000000
                     rc =    4.632753
                 energy =   -1.002270
                kinetic =    0.855760
    potential(screened) =   -1.858031
       potential(ionic) =   -5.417575

   izeta = 2
                 rmatch =    3.431921
              splitnorm =    0.150000
                 energy =   -0.867111
                kinetic =    1.300804
    potential(screened) =   -2.167915
       potential(ionic) =   -5.962684

SPLIT: Orbitals with angular momentum L= 1

SPLIT: Basis orbitals for state 2p

SPLIT: PAO cut-off radius determined from an
SPLIT: energy shift=  0.007350 Ry

   izeta = 1
                 lambda =    1.000000
                     rc =    5.658549
                 energy =   -0.381140
                kinetic =    2.399701
    potential(screened) =   -2.780841
       potential(ionic) =   -6.206085

   izeta = 2
                 rmatch =    3.653288
              splitnorm =    0.150000
                 energy =   -0.249149
                kinetic =    3.542762
    potential(screened) =   -3.791911
       potential(ionic) =   -7.581078

POLgen: Perturbative polarization orbital with L=  2

POLgen: Polarization orbital for state 2p

   izeta = 1
                     rc =    5.658549
                 energy =    1.109913
                kinetic =    2.304789
    potential(screened) =   -1.194876
       potential(ionic) =   -4.013592
atom: Total number of Sankey-type orbitals: 13

atm_pop: Valence configuration (for local Pseudopot. screening):
 2s( 2.00)                                                            
 2p( 2.00)                                                            
Vna: chval, zval:    4.00000   4.00000

Vna:  Cut-off radius for the neutral-atom potential:   5.658549
comcore: Pseudo-core radius Rcore=  1.791422

atom: _________________________________________________________________________

prinput: Basis input ----------------------------------------------------------

PAO.BasisType split     

%block ChemicalSpeciesLabel
    1    7 N                       # Species index, atomic number, species label
    2    6 C                       # Species index, atomic number, species label
%endblock ChemicalSpeciesLabel

%block PAO.Basis                 # Define Basis set
N                     2                    # Species label, number of l-shells
 n=2   0   2                         # n, l, Nzeta 
   4.071      2.905   
   1.000      1.000   
 n=2   1   2 P   1                   # n, l, Nzeta, Polarization, NzetaPol
   4.973      3.054   
   1.000      1.000   
C                     2                    # Species label, number of l-shells
 n=2   0   2                         # n, l, Nzeta 
   4.633      3.432   
   1.000      1.000   
 n=2   1   2 P   1                   # n, l, Nzeta, Polarization, NzetaPol
   5.659      3.653   
   1.000      1.000   
%endblock PAO.Basis

prinput: ----------------------------------------------------------------------

coor:   Atomic-coordinates input format  =     Fractional

siesta: Atomic coordinates (Bohr) and species
siesta:     -2.35420  38.89134   0.00000  1        1
siesta:     -2.35420  41.57980   0.00000  1        2
siesta:      2.30256  38.89134   0.00000  1        3
siesta:      2.30256  41.57980   0.00000  1        4
siesta:     -4.68258  34.85847   0.00000  1        5
siesta:     -4.68258  37.54693   0.00000  1        6
siesta:     -4.68258  21.41544   0.00000  1        7
siesta:     -2.35420  22.75985   0.00000  1        8
siesta:     -7.01096  22.75985   0.00000  1        9
siesta:     -7.01096  25.44831   0.00000  1       10
siesta:    -11.66772  22.75985   0.00000  1       11
siesta:    -11.66772  25.44831   0.00000  1       12
siesta:     -9.33934  26.79272   0.00000  1       13
siesta:     -9.33934  29.48119   0.00000  1       14
siesta:     -4.68258  26.79272   0.00000  1       15
siesta:     -4.68258  29.48119   0.00000  1       16
siesta:     -2.35420  30.82560   0.00000  1       17
siesta:     -2.35420  33.51406   0.00000  1       18
siesta:     -7.01096  30.82560   0.00000  1       19
siesta:     -7.01096  33.51406   0.00000  1       20
siesta:     -0.02582  34.85847   0.00000  1       21
siesta:     -0.02582  37.54693   0.00000  1       22
siesta:     -0.02582   2.59549   0.00000  2       23
siesta:     -0.02582   5.28395   0.00000  2       24
siesta:      4.63094  34.85847   0.00000  2       25
siesta:      4.63094  37.54693   0.00000  2       26
siesta:      6.95932  30.82560   0.00000  2       27
siesta:      6.95932  33.51406   0.00000  2       28
siesta:      9.28770  26.79272   0.00000  2       29
siesta:      9.28770  29.48119   0.00000  2       30
siesta:      2.30256   6.62836   0.00000  2       31
siesta:      2.30256   9.31683   0.00000  2       32
siesta:      4.63094  10.66124   0.00000  2       33
siesta:      4.63094  13.34970   0.00000  2       34
siesta:      6.95932  14.69411   0.00000  2       35
siesta:      6.95932  17.38257   0.00000  2       36
siesta:      9.28770  18.72698   0.00000  2       37
siesta:      9.28770  21.41544   0.00000  2       38
siesta:     11.61608  22.75985   0.00000  2       39
siesta:     11.61608  25.44831   0.00000  2       40
siesta:     -2.35420   6.62836   0.00000  2       41
siesta:     -2.35420   9.31683   0.00000  2       42
siesta:     -0.02582  10.66124   0.00000  2       43
siesta:     -0.02582  13.34970   0.00000  2       44
siesta:      2.30256  14.69411   0.00000  2       45
siesta:      2.30256  17.38257   0.00000  2       46
siesta:      4.63094  18.72698   0.00000  2       47
siesta:      4.63094  21.41544   0.00000  2       48
siesta:      6.95932  22.75985   0.00000  2       49
siesta:      6.95932  25.44831   0.00000  2       50
siesta:     -4.68258  10.66124   0.00000  2       51
siesta:     -4.68258  13.34970   0.00000  2       52
siesta:     -2.35420  14.69411   0.00000  2       53
siesta:     -2.35420  17.38257   0.00000  2       54
siesta:     -0.02582  18.72698   0.00000  2       55
siesta:     -0.02582  21.41544   0.00000  2       56
siesta:      2.30256  22.75985   0.00000  2       57
siesta:      2.30256  25.44831   0.00000  2       58
siesta:     -7.01096  14.69411   0.00000  2       59
siesta:     -7.01096  17.38257   0.00000  2       60
siesta:     -4.68258  18.72698   0.00000  2       61
siesta:     -2.35420  25.44831   0.00000  2       62
siesta:     -9.33934  18.72698   0.00000  2       63
siesta:     -9.33934  21.41544   0.00000  2       64
siesta:      4.63094  26.79272   0.00000  2       65
siesta:      4.63094  29.48119   0.00000  2       66
siesta:     -0.02582  26.79272   0.00000  2       67
siesta:     -0.02582  29.48119   0.00000  2       68
siesta:      2.30256  30.82560   0.00000  2       69
siesta:      2.30256  33.51406   0.00000  2       70
siesta:     -0.02582  42.92421   0.00000  2       71
siesta:     -0.02582  45.61267   0.00000  2       72

siesta: System type = slab      

initatomlists: Number of atoms, orbitals, and projectors:     72   936  1152

siesta: ******************** Simulation parameters ****************************
siesta:
siesta: The following are some of the parameters of the simulation.
siesta: A complete list of the parameters used, including default values,
siesta: can be found in file out.fdf
siesta:
redata: Non-Collinear-spin run           =     F
redata: SpinPolarized (Up/Down) run      =     F
redata: Number of spin components        =     1
redata: Long output                      =     F
redata: Number of Atomic Species         =        2
redata: Charge density info will appear in .RHO file
redata: Write Mulliken Pop.              =     NO
redata: Mesh Cutoff                      =   200.0000  Ry
redata: Net charge of the system         =     0.0000 |e|
redata: Max. number of SCF Iter          =      500
redata: SCF convergence failure will abort job
redata: Performing Pulay mixing using    =    10 iterations
redata: Mix DM in first SCF step ?       =     F
redata: Write Pulay info on disk?        =     F
redata: Discard 1st Pulay DM after  kick =     F
redata: New DM Mixing Weight             =     0.0500
redata: New DM Occupancy tolerance       = 0.000000000001
redata: No kicks to SCF
redata: DM Mixing Weight for Kicks       =     0.5000
redata: DM Tolerance for SCF             =     0.000100
redata: Require Energy convergence for SCF =     F
redata: DM Energy tolerance for SCF      =     0.000100 eV
redata: Require Harris convergence for SCF =     F
redata: DM Harris energy tolerance for SCF =     0.000100 eV
redata: Using Saved Data (generic)   =     F
redata: Use continuation files for DM    =     T
redata: Neglect nonoverlap interactions  =     F
redata: Method of Calculation            =     Diagonalization
redata: Divide and Conquer               =     T
redata: Electronic Temperature           =     0.0019  Ry
redata: Fix the spin of the system       =     F
redata: Dynamics option                  =     Verlet MD run
redata: Initial MD time step             =        1
redata:   Final MD time step             =        1
redata: Length of MD time step           =     1.0000  fs
redata: Initial Temperature of MD run    =     0.0000  K
redata: Perform a MD quench              =     F
redata: ***********************************************************************
Total number of electrons:   310.000000
Total ionic charge:   310.000000

* ProcessorY, Blocksize:    2  24

k-point displ. along   1 input, could be:     0.50    0.00
k-point displ. along   2 input, could be:     0.50    0.00
 Kpoints in:          231 . Kpoints trimmed:          231

siesta: k-grid: Number of k-points =   231
siesta: k-grid: Cutoff (effective) =     5.000 Ang
siesta: k-grid: Supercell and displacements
siesta: k-grid:   21   0   0      0.500
siesta: k-grid:    0  21   0      0.500
siesta: k-grid:    0   0   1      0.000
Naive supercell factors:     2    2    2

superc: Internal auxiliary supercell:     2 x     2 x     2  =       8
superc: Number of atoms, orbitals, and projectors:    576   7488   9216

* Maximum dynamic memory allocated =     4 MB

siesta:                 ==============================
                            Begin MD step =      1
                        ==============================

superc: Internal auxiliary supercell:     2 x     2 x     2  =       8
superc: Number of atoms, orbitals, and projectors:    576   7488   9216

outcell: Unit cell vectors (Ang):
       12.804619    7.392750    0.000000
        0.000000   14.785500    0.000000
        0.000000    0.000000   10.000000

outcell: Cell vector modules (Ang)   :   14.785500   14.785500   10.000000
outcell: Cell angles (23,13,12) (deg):     90.0000     90.0000     60.0000
outcell: Cell volume (Ang**3)        :   1893.2269
New_DM. Step:     1
Initializing Density Matrix...

InitMesh: MESH =   120 x   120 x    90 =     1296000
InitMesh: Mesh cutoff (required, used) =   200.000   223.865 Ry

* Maximum dynamic memory allocated =   179 MB

stepf: Fermi-Dirac step function

siesta: Program's energy decomposition (eV):
siesta: Ebs     =     -6330.751932
siesta: Eions   =     21939.441643
siesta: Ena     =      4953.620832
siesta: Ekin    =      8224.476411
siesta: Enl     =       -11.728354
siesta: DEna    =        -0.000015
siesta: DUscf   =         0.000000
siesta: DUext   =         0.000000
siesta: Exc     =     -4726.618599
siesta: eta*DQ  =         0.000000
siesta: Emadel  =         0.000000
siesta: Emeta   =         0.000000
siesta: Emolmec =         0.000000
siesta: Ekinion =         0.000000
siesta: Eharris =    -13116.836453
siesta: Etot    =    -13499.691368
siesta: FreeEng =    -13499.691368

siesta: iscf   Eharris(eV)      E_KS(eV)   FreeEng(eV)   dDmax  Ef(eV)
siesta:    1   -13116.8365   -13499.6914   -13499.6914  5.9247 -6.7806
timer: Routine,Calls,Time,% = IterSCF        1    3367.381  99.69
elaps: Routine,Calls,Wall,% = IterSCF        1     421.728  99.69
siesta:    2   -16918.2412   -12547.2466   -12547.2656 18.7657 -2.4252
siesta:    3   -13005.7441   -13307.8758   -13307.9100  2.5657 -5.0854
siesta:    4   -12983.7557   -13135.6809   -13135.7403  1.1494 -4.2122
siesta:    5   -12962.1116   -13067.7138   -13067.7613  1.1193 -3.7725
siesta:    6   -12958.5403   -13053.4748   -13053.5107  0.8880 -3.8011
siesta:    7   -12955.5117   -13032.0728   -13032.1025  0.8223 -3.9352
siesta:    8   -12954.2315   -13006.5200   -13006.5884  0.6928 -4.0294
siesta:    9   -12953.2689   -12997.4853   -12997.5533  0.6273 -3.9511
siesta:   10   -12953.3998   -12975.0212   -12975.0772  0.4474 -4.0017
siesta:   11   -12952.9081   -12956.3786   -12956.4479  0.4067 -3.9354
siesta:   12   -12952.6520   -12946.6124   -12946.6723  0.2169 -3.7851
siesta:   13   -12952.3485   -12939.5137   -12939.5746  0.1710 -3.8524
siesta:   14   -12952.1409   -12939.8429   -12939.9062  0.2022 -3.8571
siesta:   15   -12951.9285   -12940.7573   -12940.8263  0.2212 -3.9234
siesta:   16   -12951.8660   -12942.3497   -12942.4172  0.2195 -3.9270
siesta:   17   -12951.8415   -12942.8318   -12942.9024  0.1420 -3.9221
siesta:   18   -12951.8074   -12944.4396   -12944.5062  0.0929 -3.9377
siesta:   19   -12951.7953   -12947.6596   -12947.7304  0.0491 -3.9378
siesta:   20   -12951.7867   -12948.1625   -12948.2296  0.0412 -3.9385
siesta:   21   -12951.7801   -12950.2504   -12950.3202  0.0729 -3.9455
siesta:   22   -12951.7745   -12951.3481   -12951.4183  0.0096 -3.9458
siesta:   23   -12951.7738   -12951.3829   -12951.4561  0.0187 -3.9425
siesta:   24   -12951.7735   -12951.6400   -12951.7124  0.0155 -3.9392
siesta:   25   -12951.7723   -12951.8610   -12951.9326  0.0228 -3.9351
siesta:   26   -12951.7725   -12951.8733   -12951.9452  0.0063 -3.9350
siesta:   27   -12951.7722   -12951.8597   -12951.9312  0.0038 -3.9353
siesta:   28   -12951.7721   -12951.8009   -12951.8725  0.0028 -3.9356
siesta:   29   -12951.7721   -12951.7378   -12951.8094  0.0012 -3.9348
siesta:   30   -12951.7721   -12951.7534   -12951.8250  0.0015 -3.9349
siesta:   31   -12951.7721   -12951.7789   -12951.8505  0.0013 -3.9350
siesta:   32   -12951.7721   -12951.8205   -12951.8921  0.0008 -3.9350
siesta:   33   -12951.7721   -12951.8119   -12951.8835  0.0016 -3.9352
siesta:   34   -12951.7721   -12951.8129   -12951.8844  0.0004 -3.9351
siesta:   35   -12951.7721   -12951.8047   -12951.8763  0.0004 -3.9351
siesta:   36   -12951.7721   -12951.7941   -12951.8657  0.0003 -3.9351
siesta:   37   -12951.7721   -12951.7904   -12951.8620  0.0001 -3.9350
siesta:   38   -12951.7721   -12951.7826   -12951.8542  0.0002 -3.9351
siesta:   39   -12951.7721   -12951.7785   -12951.8501  0.0001 -3.9351

siesta: E_KS(eV) =           -12951.7760

siesta: E_KS - E_eggbox =    -12951.7760

siesta: Atomic forces (eV/Ang):
----------------------------------------
   Tot   -0.226347   -0.056963    0.000000
----------------------------------------
   Max  683.191336
   Res  180.397843    sqrt( Sum f_i^2 / 3N )
----------------------------------------
   Max  683.191336    constrained

Stress-tensor-Voigt (kbar):     -627.94    -3260.84       -0.05       18.86        0.00        0.00
(Free)E + p*V (eV/cell)   -11420.1048
Target enthalpy (eV/cell)   -12951.8476

siesta: Stress tensor (static) (eV/Ang**3):
        -0.391926    0.011771    0.000000
         0.011771   -2.035235    0.000000
         0.000000    0.000000   -0.000033

siesta: Pressure (static):       1296.27831322  kBar

siesta: Stress tensor (total) (eV/Ang**3):
        -0.391926    0.011771    0.000000
         0.011771   -2.035235    0.000000
         0.000000    0.000000   -0.000033

siesta: Pressure (total):       1296.27831322  kBar

siesta: Temp_ion =       0.000 K

* Maximum dynamic memory allocated =   195 MB
Computing bands...

siesta: Program's energy decomposition (eV):
siesta: Ebs     =     -5076.243064
siesta: Eions   =     21939.441643
siesta: Ena     =      4953.620832
siesta: Ekin    =     11379.721866
siesta: Enl     =     -1736.794880
siesta: DEna    =      -815.671508
siesta: DUscf   =       113.119863
siesta: DUext   =         0.000000
siesta: Exc     =     -4906.330507
siesta: eta*DQ  =         0.000000
siesta: Emadel  =         0.000000
siesta: Emeta   =         0.000000
siesta: Emolmec =         0.000000
siesta: Ekinion =         0.000000
siesta: Eharris =    -12951.772080
siesta: Etot    =    -12951.775976
siesta: FreeEng =    -12951.847574

siesta: Final energy (eV):
siesta:  Band Struct. =   -5076.243064
siesta:       Kinetic =   11379.721866
siesta:       Hartree =   36764.416708
siesta:    Ext. field =       0.000000
siesta:   Exch.-corr. =   -4906.330507
siesta:  Ion-electron =  -84400.918391
siesta:       Ion-ion =   28211.334348
siesta:       Ekinion =       0.000000
siesta:         Total =  -12951.775976

siesta: Atomic forces (eV/Ang):
siesta:      1    0.736186  108.951266    0.000000
siesta:      2  -21.133242 -653.857957    0.000000
siesta:      3    3.305313  104.765409    0.000000
siesta:      4   15.819591 -650.736749    0.000000
siesta:      5  -30.346754    8.120362    0.000000
siesta:      6  -26.721243 -658.002209    0.000000
siesta:      7    0.760174    0.345514    0.000000
siesta:      8   -2.337981    0.370185    0.000000
siesta:      9    0.121743   -0.143962    0.000000
siesta:     10    0.875184    0.610074    0.000000
siesta:     11    2.325670    2.875057    0.000000
siesta:     12    0.562253   -1.941733    0.000000
siesta:     13    0.572267    0.343582    0.000000
siesta:     14    0.507000    0.164491    0.000000
siesta:     15    0.249550   -1.527203    0.000000
siesta:     16   -2.632621   -3.641363    0.000000
siesta:     17  -27.114797    7.499091    0.000000
siesta:     18    2.083083 -677.932025    0.000000
siesta:     19   -1.265034   -0.879988    0.000000
siesta:     20   -1.201754   -3.328423    0.000000
siesta:     21    2.866387  107.125708    0.000000
siesta:     22   -0.480322 -666.021141    0.000000
siesta:     23  -13.600028  548.989765    0.000000
siesta:     24   -1.288037 -121.683446    0.000000
siesta:     25   27.208664    3.790870    0.000000
siesta:     26   32.059308 -552.911914    0.000000
siesta:     27    2.067841    0.264705    0.000000
siesta:     28   -3.446571    1.837075    0.000000
siesta:     29    2.282830    2.392864    0.000000
siesta:     30   -1.434725   -0.125889    0.000000
siesta:     31   -4.018309  547.089219    0.000000
siesta:     32   -1.065338 -121.360019    0.000000
siesta:     33   20.826783  551.024349    0.000000
siesta:     34   26.966303   -3.653385    0.000000
siesta:     35   -3.324006   -1.707703    0.000000
siesta:     36    1.656779    0.320293    0.000000
siesta:     37   -1.537111    0.098261    0.000000
siesta:     38    1.822868   -2.528637    0.000000
siesta:     39    0.115087    7.800338    0.000000
siesta:     40   -0.365840   -7.635507    0.000000
siesta:     41  -24.059629  655.033699    0.000000
siesta:     42    1.997395 -115.708856    0.000000
siesta:     43   -5.600774  674.702736    0.000000
siesta:     44    0.007310 -118.508647    0.000000
siesta:     45   16.375657  678.421768    0.000000
siesta:     46   24.070966   -6.519863    0.000000
siesta:     47   -1.051128    2.976781    0.000000
siesta:     48    0.446351   -0.648089    0.000000
siesta:     49   -0.164720    0.734292    0.000000
siesta:     50   -0.227128   -0.708377    0.000000
siesta:     51  -21.117664  659.033623    0.000000
siesta:     52  -26.064123   -4.178422    0.000000
siesta:     53   -6.867345  683.191336    0.000000
siesta:     54  -24.159390   -4.871576    0.000000
siesta:     55   -0.501256  561.913922    0.000000
siesta:     56    0.180188    0.435094    0.000000
siesta:     57   -0.799065    0.298206    0.000000
siesta:     58    0.195333   -0.429518    0.000000
siesta:     59    2.269021   -0.390434    0.000000
siesta:     60   -1.231118   -0.251179    0.000000
siesta:     61    1.659953    3.179716    0.000000
siesta:     62   -0.780702    1.085359    0.000000
siesta:     63   -0.242148    1.657713    0.000000
siesta:     64   -1.951790   -0.729764    0.000000
siesta:     65    0.263199    0.252661    0.000000
siesta:     66   -1.203123   -2.524098    0.000000
siesta:     67   -0.795021   -1.120807    0.000000
siesta:     68   19.568146 -575.120114    0.000000
siesta:     69   24.026245    4.565851    0.000000
siesta:     70   27.978969 -561.839077    0.000000
siesta:     71   -4.029303  140.142524    0.000000
siesta:     72   -0.896808 -549.292648    0.000000
siesta: ----------------------------------------
siesta:    Tot   -0.226347   -0.056963    0.000000

siesta: Stress tensor (static) (eV/Ang**3):
siesta:    -0.391926    0.011771    0.000000
siesta:     0.011771   -2.035235    0.000000
siesta:     0.000000    0.000000   -0.000033

siesta: Cell volume =       1893.226884 Ang**3

siesta: Pressure (static):
siesta:                Solid            Molecule  Units
siesta:           0.00881175          0.14364054  Ry/Bohr**3
siesta:           0.80906454         13.18858570  eV/Ang**3
siesta:        1296.27831322      21130.67223972  kBar
(Free)E+ p_basis*V_orbitals  =      -12924.255155
(Free)Eharris+ p_basis*V_orbitals  =      -12924.248720

siesta: Electric dipole (a.u.)  =    0.000000    0.000000    0.000000
siesta: Electric dipole (Debye) =    0.000000    0.000000    0.000000

* Maximum dynamic memory allocated : Node    0 =   195 MB
* Maximum dynamic memory allocated : Node    1 =    71 MB
* Maximum dynamic memory allocated : Node    2 =    71 MB
* Maximum dynamic memory allocated : Node    3 =   185 MB
* Maximum dynamic memory allocated : Node    4 =   190 MB
* Maximum dynamic memory allocated : Node    5 =    71 MB
* Maximum dynamic memory allocated : Node    6 =    73 MB
* Maximum dynamic memory allocated : Node    7 =   175 MB

* Maximum memory occured during matrixMtoO                    

timer: CPU execution times:
timer:  Routine       Calls   Time/call    Tot.time        %
timer:  siesta            1  129622.870  129622.870   100.00
timer:  Setup             1       2.676       2.676     0.00
timer:  bands             3     243.572     730.715     0.56
timer:  writewave         1       0.020       0.020     0.00
timer:  KSV_init          1       0.000       0.000     0.00
timer:  IterMD            1  128884.157  128884.157    99.43
timer:  hsparse           1       0.282       0.282     0.00
timer:  overlap           1       7.130       7.130     0.01
timer:  IterSCF          39    3301.043  128740.690    99.32
timer:  kinefsm           2       3.672       7.345     0.01
timer:  nlefsm            2      17.300      34.601     0.03
timer:  DHSCF            40      70.485    2819.407     2.18
timer:  DHSCF1            1       0.742       0.742     0.00
timer:  DHSCF2            1      29.678      29.678     0.02
timer:  REORD           322       0.005       1.636     0.00
timer:  POISON           41       0.868      35.574     0.03
timer:  DHSCF3           40      69.013    2760.517     2.13
timer:  rhoofd           40      15.203     608.135     0.47
timer:  cellXC           40       3.257     130.295     0.10
timer:  vmat             40      31.814    1272.578     0.98
timer:  MolMec            2       0.000       0.000     0.00
timer:  diagon           39    3229.810  125962.583    97.18
timer:  c-eigval       9130       6.028   55036.011    42.46
timer:  c-buildHS      9130       0.048     438.669     0.34
timer:  cdiag         18139       6.165  111820.398    86.27
timer:  cdiag1        18139       0.385    6988.303     5.39
timer:  cdiag2        18139       1.765   32022.186    24.70
timer:  cdiag3        18139       3.735   67757.183    52.27
timer:  cdiag4        18139       0.152    2755.446     2.13
timer:  c-eigvec       9009       6.389   57555.655    44.40
timer:  c-buildD       9009       1.560   14055.773    10.84
timer:  DHSCF4            1      27.719      27.719     0.02
timer:  dfscf             1      25.861      25.861     0.02
timer:  overfsm           1       0.379       0.379     0.00
timer:  optical           1       4.663       4.663     0.00
  

elaps: ELAPSED times:
elaps:  Routine       Calls   Time/call    Tot.time        %
elaps:  siesta            1   16233.247   16233.247   100.00
elaps:  Setup             1       0.336       0.336     0.00
elaps:  bands             3      30.520      91.561     0.56
elaps:  writewave         1       0.002       0.002     0.00
elaps:  KSV_init          1       0.000       0.000     0.00
elaps:  IterMD            1   16140.732   16140.732    99.43
elaps:  hsparse           1       0.038       0.038     0.00
elaps:  overlap           1       0.895       0.895     0.01
elaps:  IterSCF          39     413.404   16122.767    99.32
elaps:  kinefsm           2       0.461       0.923     0.01
elaps:  nlefsm            2       2.208       4.415     0.03
elaps:  DHSCF            40       8.914     356.548     2.20
elaps:  DHSCF1            1       0.095       0.095     0.00
elaps:  DHSCF2            1       3.716       3.716     0.02
elaps:  REORD           322       0.001       0.212     0.00
elaps:  POISON           41       0.110       4.493     0.03
elaps:  DHSCF3           40       8.644     345.744     2.13
elaps:  rhoofd           40       4.055     162.193     1.00
elaps:  cellXC           40       0.408      16.303     0.10
elaps:  vmat             40       3.985     159.388     0.98
elaps:  MolMec            2       0.000       0.000     0.00
elaps:  diagon           39     404.491   15775.168    97.18
elaps:  c-eigval       9130       0.755    6892.348    42.46
elaps:  c-buildHS      9130       0.007      61.083     0.38
elaps:  cdiag         18139       0.767   13914.493    85.72
elaps:  cdiag1        18139       0.048     869.679     5.36
elaps:  cdiag2        18139       0.221    4010.940    24.71
elaps:  cdiag3        18139       0.468    8497.056    52.34
elaps:  cdiag4        18139       0.019     343.654     2.12
elaps:  c-eigvec       9009       0.792    7132.069    43.93
elaps:  c-buildD       9009       0.204    1836.004    11.31
elaps:  DHSCF4            1       6.899       6.899     0.04
elaps:  dfscf             1       6.511       6.511     0.04
elaps:  overfsm           1       0.050       0.050     0.00
elaps:  optical           1       0.000       0.000     0.00
  
>> End of run:  26-APR-2016  19:47:53
