Siesta Version:                                        siesta-3.2-pl-3
Architecture  : x86_64-unknown-linux-gnu--unknown
Compiler flags: mpiifort -g -O2 -fPIC -xSSE4.1 -fp-model source -shared-intel 
PARALLEL version

* Running on    8 nodes in parallel
>> Start of run:   2-MAY-2016  10:58:40

                           ***********************       
                           *  WELCOME TO SIESTA  *       
                           ***********************       

reinit: Reading from standard input
************************** Dump of input data file ****************************
#(1) General system descriptors
SystemName            GRP_doping    # Descriptive name of the system
SystemLabel           GRP_doping    # Short name for naming files
%include STRUCT.fdf
%include KPT.fdf
%include BASIS.fdf
#%include TS.fdf # for transiesta calculation
#(4) DFT, Grid, SCF
XC.functional         GGA           # LDA or GGA (default = LDA)
XC.authors            PBE           # CA (Ceperley-Aldr) = PZ
                                    #    (Perdew-Zunger) - LDA - Default
                                    # PW92 (Perdew-Wang-92) - LDA
                                    # PBE (Perdew-Burke-Ernzerhof) - GGA
MeshCutoff            200.000000    Ry      # Default: 50.0 Ry ~ 0.444 Bohr
                                    #         100.0 Ry ~ 0.314 Bohr
MaxSCFIterations      500           # Default: 50
DM.MixingWeight       0.05          # Default: 0.25
DM.NumberPulay        10            # Default: 0
DM.PulayOnFile        F             # SystemLabel.P1, SystemLabel.P2
DM.Tolerance          1.d-4         # Default: 1.d-4
DM.UseSaveDM          .true.        # because of the bug
SCFMustConverge       .true.
NeglNonOverlapInt     F             # Default: F
#(5) Eigenvalue problem: order-N or diagonalization
SolutionMethod        Diagon        # or Transiesta
ElectronicTemperature 300.0 K       # Default: 300.0 K
#(6) Molecular dynamics and relaxations
#MD.TypeOfRun          CG            # Type of dynamics:
#MD.VariableCell       F
#MD.NumCGsteps         0           # 0 for single-point / 100 for gopt
#MD.MaxCGDispl         0.2 Bohr      # Default: 0.2 Bohr
#MD.MaxForceTol        0.02 eV/Ang   # Default: 0.04 eV/Ang
#MD.MaxStressTol       1.0 GPa       # Default: 1.0 GPa
# Geometry Constraints
#%block GeometryConstraints
#	position from 1 to 44
#%endblock GeometryConstraints
BandLinesScale   pi/a
%block BandLines
 1   0.00000000  0.00000000  0.00000000
50   0.00000000  0.07809418  0.00000000
50   0.04509075  0.07809242  0.00000000
20   0.00000000  0.00000000  0.00000000
%endblock BandLines
************************** End of input data file *****************************

reinit: -----------------------------------------------------------------------
reinit: System Name: GRP_doping
reinit: -----------------------------------------------------------------------
reinit: System Label: GRP_doping                                                  
reinit: -----------------------------------------------------------------------

initatom: Reading input for the pseudopotentials and atomic orbitals ----------
 Species number:            1  Label: N Atomic number:           7
 Species number:            2  Label: C Atomic number:           6
Ground state valence configuration:   2s02  2p03
Reading pseudopotential information in formatted form from N.psf

Valence configuration for pseudopotential generation:
2s( 2.00) rc: 1.48
2p( 3.00) rc: 1.48
3d( 0.00) rc: 1.48
4f( 0.00) rc: 1.48
Ground state valence configuration:   2s02  2p02
Reading pseudopotential information in formatted form from C.psf

Valence configuration for pseudopotential generation:
2s( 2.00) rc: 1.54
2p( 2.00) rc: 1.54
3d( 0.00) rc: 1.54
4f( 0.00) rc: 1.54
For N, standard SIESTA heuristics set lmxkb to 3
 (one more than the basis l, including polarization orbitals).
Use PS.lmax or PS.KBprojectors blocks to override.
For C, standard SIESTA heuristics set lmxkb to 3
 (one more than the basis l, including polarization orbitals).
Use PS.lmax or PS.KBprojectors blocks to override.

<basis_specs>
===============================================================================
N                    Z=   7    Mass=  14.010        Charge= 0.17977+309
Lmxo=1 Lmxkb= 3    BasisType=split      Semic=F
L=0  Nsemic=0  Cnfigmx=2
          n=1  nzeta=2  polorb=0
            splnorm:   0.15000    
               vcte:    0.0000    
               rinn:    0.0000    
                rcs:    0.0000      0.0000    
            lambdas:    1.0000      1.0000    
L=1  Nsemic=0  Cnfigmx=2
          n=1  nzeta=2  polorb=1
            splnorm:   0.15000    
               vcte:    0.0000    
               rinn:    0.0000    
                rcs:    0.0000      0.0000    
            lambdas:    1.0000      1.0000    
-------------------------------------------------------------------------------
L=0  Nkbl=1  erefs: 0.17977+309
L=1  Nkbl=1  erefs: 0.17977+309
L=2  Nkbl=1  erefs: 0.17977+309
L=3  Nkbl=1  erefs: 0.17977+309
===============================================================================
</basis_specs>

atom: Called for N                     (Z =   7)

read_vps: Pseudopotential generation method:
read_vps: ATM3      Troullier-Martins                       
Total valence charge:    5.00000

read_vps: Pseudopotential includes a core correction:
read_vps: Pseudo-core for xc-correction

xc_check: Exchange-correlation functional:
xc_check: GGA Perdew, Burke & Ernzerhof 1996
V l=0 = -2*Zval/r beyond r=  1.4606
V l=1 = -2*Zval/r beyond r=  1.4606
V l=2 = -2*Zval/r beyond r=  1.4606
V l=3 = -2*Zval/r beyond r=  1.4606
All V_l potentials equal beyond r=  1.4606
This should be close to max(r_c) in ps generation
All pots = -2*Zval/r beyond r=  1.4606

VLOCAL1: 99.0% of the norm of Vloc inside     20.347 Ry
VLOCAL1: 99.9% of the norm of Vloc inside     46.372 Ry
atom: Maximum radius for 4*pi*r*r*local-pseudopot. charge    1.76189
atom: Maximum radius for r*vlocal+2*Zval:    1.53550
GHOST: No ghost state for L =  0
GHOST: No ghost state for L =  1
GHOST: No ghost state for L =  2
GHOST: No ghost state for L =  3

KBgen: Kleinman-Bylander projectors: 
   l= 0   rc=  1.634559   el= -1.363963   Ekb=  5.296955   kbcos=  0.335621
   l= 1   rc=  1.614250   el= -0.521451   Ekb= -5.259161   kbcos= -0.433408
   l= 2   rc=  1.718383   el=  0.001991   Ekb= -1.271464   kbcos= -0.007566
   l= 3   rc=  1.761893   el=  0.003093   Ekb= -0.494769   kbcos= -0.001015

KBgen: Total number of  Kleinman-Bylander projectors:   16
atom: -------------------------------------------------------------------------

atom: SANKEY-TYPE ORBITALS:
atom: Selected multiple-zeta basis: split     

SPLIT: Orbitals with angular momentum L= 0

SPLIT: Basis orbitals for state 2s

SPLIT: PAO cut-off radius determined from an
SPLIT: energy shift=  0.007350 Ry

   izeta = 1
                 lambda =    1.000000
                     rc =    4.071465
                 energy =   -1.356470
                kinetic =    1.176977
    potential(screened) =   -2.533447
       potential(ionic) =   -8.057990

   izeta = 2
                 rmatch =    2.905100
              splitnorm =    0.150000
                 energy =   -1.158343
                kinetic =    1.813009
    potential(screened) =   -2.971352
       potential(ionic) =   -8.901931

SPLIT: Orbitals with angular momentum L= 1

SPLIT: Basis orbitals for state 2p

SPLIT: PAO cut-off radius determined from an
SPLIT: energy shift=  0.007350 Ry

   izeta = 1
                 lambda =    1.000000
                     rc =    4.972977
                 energy =   -0.513884
                kinetic =    3.441732
    potential(screened) =   -3.955616
       potential(ionic) =   -9.287901

   izeta = 2
                 rmatch =    3.054066
              splitnorm =    0.150000
                 energy =   -0.318226
                kinetic =    5.125348
    potential(screened) =   -5.443573
       potential(ionic) =  -11.380999

POLgen: Perturbative polarization orbital with L=  2

POLgen: Polarization orbital for state 2p

   izeta = 1
                     rc =    4.972977
                 energy =    1.607437
                kinetic =    3.268125
    potential(screened) =   -1.660688
       potential(ionic) =   -5.973652
atom: Total number of Sankey-type orbitals: 13

atm_pop: Valence configuration (for local Pseudopot. screening):
 2s( 2.00)                                                            
 2p( 3.00)                                                            
Vna: chval, zval:    5.00000   5.00000

Vna:  Cut-off radius for the neutral-atom potential:   4.972977
comcore: Pseudo-core radius Rcore=  1.554824

atom: _________________________________________________________________________

<basis_specs>
===============================================================================
C                    Z=   6    Mass=  12.010        Charge= 0.17977+309
Lmxo=1 Lmxkb= 3    BasisType=split      Semic=F
L=0  Nsemic=0  Cnfigmx=2
          n=1  nzeta=2  polorb=0
            splnorm:   0.15000    
               vcte:    0.0000    
               rinn:    0.0000    
                rcs:    0.0000      0.0000    
            lambdas:    1.0000      1.0000    
L=1  Nsemic=0  Cnfigmx=2
          n=1  nzeta=2  polorb=1
            splnorm:   0.15000    
               vcte:    0.0000    
               rinn:    0.0000    
                rcs:    0.0000      0.0000    
            lambdas:    1.0000      1.0000    
-------------------------------------------------------------------------------
L=0  Nkbl=1  erefs: 0.17977+309
L=1  Nkbl=1  erefs: 0.17977+309
L=2  Nkbl=1  erefs: 0.17977+309
L=3  Nkbl=1  erefs: 0.17977+309
===============================================================================
</basis_specs>

atom: Called for C                     (Z =   6)

read_vps: Pseudopotential generation method:
read_vps: ATM3      Troullier-Martins                       
Total valence charge:    4.00000

read_vps: Pseudopotential includes a core correction:
read_vps: Pseudo-core for xc-correction

xc_check: Exchange-correlation functional:
xc_check: GGA Perdew, Burke & Ernzerhof 1996
V l=0 = -2*Zval/r beyond r=  1.5227
V l=1 = -2*Zval/r beyond r=  1.5227
V l=2 = -2*Zval/r beyond r=  1.5227
V l=3 = -2*Zval/r beyond r=  1.5038
All V_l potentials equal beyond r=  1.5227
This should be close to max(r_c) in ps generation
All pots = -2*Zval/r beyond r=  1.5227

VLOCAL1: 99.0% of the norm of Vloc inside     18.722 Ry
VLOCAL1: 99.9% of the norm of Vloc inside     42.668 Ry
atom: Maximum radius for 4*pi*r*r*local-pseudopot. charge    1.83678
atom: Maximum radius for r*vlocal+2*Zval:    1.58088
GHOST: No ghost state for L =  0
GHOST: No ghost state for L =  1
GHOST: No ghost state for L =  2
GHOST: No ghost state for L =  3

KBgen: Kleinman-Bylander projectors: 
   l= 0   rc=  1.704034   el= -1.009801   Ekb=  5.335044   kbcos=  0.316824
   l= 1   rc=  1.704034   el= -0.388707   Ekb= -3.785862   kbcos= -0.366464
   l= 2   rc=  1.791422   el=  0.001971   Ekb= -0.970471   kbcos= -0.009212
   l= 3   rc=  1.859892   el=  0.003065   Ekb= -0.399525   kbcos= -0.001223

KBgen: Total number of  Kleinman-Bylander projectors:   16
atom: -------------------------------------------------------------------------

atom: SANKEY-TYPE ORBITALS:
atom: Selected multiple-zeta basis: split     

SPLIT: Orbitals with angular momentum L= 0

SPLIT: Basis orbitals for state 2s

SPLIT: PAO cut-off radius determined from an
SPLIT: energy shift=  0.007350 Ry

   izeta = 1
                 lambda =    1.000000
                     rc =    4.632753
                 energy =   -1.002270
                kinetic =    0.855760
    potential(screened) =   -1.858031
       potential(ionic) =   -5.417575

   izeta = 2
                 rmatch =    3.431921
              splitnorm =    0.150000
                 energy =   -0.867111
                kinetic =    1.300804
    potential(screened) =   -2.167915
       potential(ionic) =   -5.962684

SPLIT: Orbitals with angular momentum L= 1

SPLIT: Basis orbitals for state 2p

SPLIT: PAO cut-off radius determined from an
SPLIT: energy shift=  0.007350 Ry

   izeta = 1
                 lambda =    1.000000
                     rc =    5.658549
                 energy =   -0.381140
                kinetic =    2.399701
    potential(screened) =   -2.780841
       potential(ionic) =   -6.206085

   izeta = 2
                 rmatch =    3.653288
              splitnorm =    0.150000
                 energy =   -0.249149
                kinetic =    3.542762
    potential(screened) =   -3.791911
       potential(ionic) =   -7.581078

POLgen: Perturbative polarization orbital with L=  2

POLgen: Polarization orbital for state 2p

   izeta = 1
                     rc =    5.658549
                 energy =    1.109913
                kinetic =    2.304789
    potential(screened) =   -1.194876
       potential(ionic) =   -4.013592
atom: Total number of Sankey-type orbitals: 13

atm_pop: Valence configuration (for local Pseudopot. screening):
 2s( 2.00)                                                            
 2p( 2.00)                                                            
Vna: chval, zval:    4.00000   4.00000

Vna:  Cut-off radius for the neutral-atom potential:   5.658549
comcore: Pseudo-core radius Rcore=  1.791422

atom: _________________________________________________________________________

prinput: Basis input ----------------------------------------------------------

PAO.BasisType split     

%block ChemicalSpeciesLabel
    1    7 N                       # Species index, atomic number, species label
    2    6 C                       # Species index, atomic number, species label
%endblock ChemicalSpeciesLabel

%block PAO.Basis                 # Define Basis set
N                     2                    # Species label, number of l-shells
 n=2   0   2                         # n, l, Nzeta 
   4.071      2.905   
   1.000      1.000   
 n=2   1   2 P   1                   # n, l, Nzeta, Polarization, NzetaPol
   4.973      3.054   
   1.000      1.000   
C                     2                    # Species label, number of l-shells
 n=2   0   2                         # n, l, Nzeta 
   4.633      3.432   
   1.000      1.000   
 n=2   1   2 P   1                   # n, l, Nzeta, Polarization, NzetaPol
   5.659      3.653   
   1.000      1.000   
%endblock PAO.Basis

prinput: ----------------------------------------------------------------------

coor:   Atomic-coordinates input format  =     Fractional

siesta: Atomic coordinates (Bohr) and species
siesta:      6.95932  30.82560   0.00000  1        1
siesta:     -2.35420  17.38257   0.00000  1        2
siesta:     -0.02582  18.72698   0.00000  1        3
siesta:     -0.02582  21.41544   0.00000  1        4
siesta:      2.30256  22.75985   0.00000  1        5
siesta:      2.30256  25.44831   0.00000  1        6
siesta:     -4.68258  18.72698   0.00000  1        7
siesta:     -4.68258  21.41544   0.00000  1        8
siesta:     -2.35420  22.75985   0.00000  1        9
siesta:     -2.35420  25.44831   0.00000  1       10
siesta:      4.63094  26.79272   0.00000  1       11
siesta:      4.63094  29.48119   0.00000  1       12
siesta:     -0.02582  26.79272   0.00000  1       13
siesta:     -0.02582  29.48119   0.00000  1       14
siesta:      2.30256  30.82560   0.00000  1       15
siesta:      2.30256  33.51406   0.00000  1       16
siesta:     -0.02582   2.59549   0.00000  2       17
siesta:     -0.02582   5.28395   0.00000  2       18
siesta:     -2.35420  38.89134   0.00000  2       19
siesta:     -2.35420  41.57980   0.00000  2       20
siesta:      2.30256  38.89134   0.00000  2       21
siesta:      2.30256  41.57980   0.00000  2       22
siesta:      4.63094  34.85847   0.00000  2       23
siesta:      4.63094  37.54693   0.00000  2       24
siesta:      6.95932  33.51406   0.00000  2       25
siesta:      9.28770  26.79272   0.00000  2       26
siesta:      9.28770  29.48119   0.00000  2       27
siesta:     -4.68258  34.85847   0.00000  2       28
siesta:     -4.68258  37.54693   0.00000  2       29
siesta:      2.30256   6.62836   0.00000  2       30
siesta:      2.30256   9.31683   0.00000  2       31
siesta:      4.63094  10.66124   0.00000  2       32
siesta:      4.63094  13.34970   0.00000  2       33
siesta:      6.95932  14.69411   0.00000  2       34
siesta:      6.95932  17.38257   0.00000  2       35
siesta:      9.28770  18.72698   0.00000  2       36
siesta:      9.28770  21.41544   0.00000  2       37
siesta:     11.61608  22.75985   0.00000  2       38
siesta:     11.61608  25.44831   0.00000  2       39
siesta:     -2.35420   6.62836   0.00000  2       40
siesta:     -2.35420   9.31683   0.00000  2       41
siesta:     -0.02582  10.66124   0.00000  2       42
siesta:     -0.02582  13.34970   0.00000  2       43
siesta:      2.30256  14.69411   0.00000  2       44
siesta:      2.30256  17.38257   0.00000  2       45
siesta:      4.63094  18.72698   0.00000  2       46
siesta:      4.63094  21.41544   0.00000  2       47
siesta:      6.95932  22.75985   0.00000  2       48
siesta:      6.95932  25.44831   0.00000  2       49
siesta:     -4.68258  10.66124   0.00000  2       50
siesta:     -4.68258  13.34970   0.00000  2       51
siesta:     -2.35420  14.69411   0.00000  2       52
siesta:     -7.01096  14.69411   0.00000  2       53
siesta:     -7.01096  17.38257   0.00000  2       54
siesta:     -9.33934  18.72698   0.00000  2       55
siesta:     -9.33934  21.41544   0.00000  2       56
siesta:     -7.01096  22.75985   0.00000  2       57
siesta:     -7.01096  25.44831   0.00000  2       58
siesta:    -11.66772  22.75985   0.00000  2       59
siesta:    -11.66772  25.44831   0.00000  2       60
siesta:     -9.33934  26.79272   0.00000  2       61
siesta:     -9.33934  29.48119   0.00000  2       62
siesta:     -4.68258  26.79272   0.00000  2       63
siesta:     -4.68258  29.48119   0.00000  2       64
siesta:     -2.35420  30.82560   0.00000  2       65
siesta:     -2.35420  33.51406   0.00000  2       66
siesta:     -7.01096  30.82560   0.00000  2       67
siesta:     -7.01096  33.51406   0.00000  2       68
siesta:     -0.02582  34.85847   0.00000  2       69
siesta:     -0.02582  37.54693   0.00000  2       70
siesta:     -0.02582  42.92421   0.00000  2       71
siesta:     -0.02582  45.61267   0.00000  2       72

siesta: System type = slab      

initatomlists: Number of atoms, orbitals, and projectors:     72   936  1152

siesta: ******************** Simulation parameters ****************************
siesta:
siesta: The following are some of the parameters of the simulation.
siesta: A complete list of the parameters used, including default values,
siesta: can be found in file out.fdf
siesta:
redata: Non-Collinear-spin run           =     F
redata: SpinPolarized (Up/Down) run      =     F
redata: Number of spin components        =     1
redata: Long output                      =     F
redata: Number of Atomic Species         =        2
redata: Charge density info will appear in .RHO file
redata: Write Mulliken Pop.              =     NO
redata: Mesh Cutoff                      =   200.0000  Ry
redata: Net charge of the system         =     0.0000 |e|
redata: Max. number of SCF Iter          =      500
redata: SCF convergence failure will abort job
redata: Performing Pulay mixing using    =    10 iterations
redata: Mix DM in first SCF step ?       =     F
redata: Write Pulay info on disk?        =     F
redata: Discard 1st Pulay DM after  kick =     F
redata: New DM Mixing Weight             =     0.0500
redata: New DM Occupancy tolerance       = 0.000000000001
redata: No kicks to SCF
redata: DM Mixing Weight for Kicks       =     0.5000
redata: DM Tolerance for SCF             =     0.000100
redata: Require Energy convergence for SCF =     F
redata: DM Energy tolerance for SCF      =     0.000100 eV
redata: Require Harris convergence for SCF =     F
redata: DM Harris energy tolerance for SCF =     0.000100 eV
redata: Using Saved Data (generic)   =     F
redata: Use continuation files for DM    =     T
redata: Neglect nonoverlap interactions  =     F
redata: Method of Calculation            =     Diagonalization
redata: Divide and Conquer               =     T
redata: Electronic Temperature           =     0.0019  Ry
redata: Fix the spin of the system       =     F
redata: Dynamics option                  =     Verlet MD run
redata: Initial MD time step             =        1
redata:   Final MD time step             =        1
redata: Length of MD time step           =     1.0000  fs
redata: Initial Temperature of MD run    =     0.0000  K
redata: Perform a MD quench              =     F
redata: ***********************************************************************
Total number of electrons:   304.000000
Total ionic charge:   304.000000

* ProcessorY, Blocksize:    2  24

k-point displ. along   1 input, could be:     0.50    0.00
k-point displ. along   2 input, could be:     0.50    0.00
 Kpoints in:          231 . Kpoints trimmed:          231

siesta: k-grid: Number of k-points =   231
siesta: k-grid: Cutoff (effective) =     5.000 Ang
siesta: k-grid: Supercell and displacements
siesta: k-grid:   21   0   0      0.500
siesta: k-grid:    0  21   0      0.500
siesta: k-grid:    0   0   1      0.000
Naive supercell factors:     2    2    2

superc: Internal auxiliary supercell:     2 x     2 x     2  =       8
superc: Number of atoms, orbitals, and projectors:    576   7488   9216

* Maximum dynamic memory allocated =     4 MB

siesta:                 ==============================
                            Begin MD step =      1
                        ==============================

superc: Internal auxiliary supercell:     2 x     2 x     2  =       8
superc: Number of atoms, orbitals, and projectors:    576   7488   9216

outcell: Unit cell vectors (Ang):
       12.804619    7.392750    0.000000
        0.000000   14.785500    0.000000
        0.000000    0.000000   10.000000

outcell: Cell vector modules (Ang)   :   14.785500   14.785500   10.000000
outcell: Cell angles (23,13,12) (deg):     90.0000     90.0000     60.0000
outcell: Cell volume (Ang**3)        :   1893.2269
New_DM. Step:     1
Initializing Density Matrix...

InitMesh: MESH =   120 x   120 x    90 =     1296000
InitMesh: Mesh cutoff (required, used) =   200.000   223.865 Ry

* Maximum dynamic memory allocated =   190 MB

stepf: Fermi-Dirac step function

siesta: Program's energy decomposition (eV):
siesta: Ebs     =     -6172.395439
siesta: Eions   =     20974.960578
siesta: Ena     =      4891.339718
siesta: Ekin    =      7720.939539
siesta: Enl     =       176.987267
siesta: DEna    =        -0.000015
siesta: DUscf   =         0.000000
siesta: DUext   =         0.000000
siesta: Exc     =     -4567.171909
siesta: eta*DQ  =         0.000000
siesta: Emadel  =         0.000000
siesta: Emeta   =         0.000000
siesta: Emolmec =         0.000000
siesta: Ekinion =         0.000000
siesta: Eharris =    -12409.797629
siesta: Etot    =    -12752.865978
siesta: FreeEng =    -12752.865978

siesta: iscf   Eharris(eV)      E_KS(eV)   FreeEng(eV)   dDmax  Ef(eV)
siesta:    1   -12409.7976   -12752.8660   -12752.8660  5.7113 -6.9862
timer: Routine,Calls,Time,% = IterSCF        1    3386.499  99.69
elaps: Routine,Calls,Wall,% = IterSCF        1     424.142  99.69
siesta:    2   -19225.6329   -11487.9415   -11488.0038 14.0991 -8.0439
siesta:    3   -12383.7664   -12558.3233   -12558.4043  2.3388 -5.4555
siesta:    4   -12302.8716   -12445.9072   -12445.9728  1.5488 -4.9203
siesta:    5   -12277.7348   -12345.6190   -12345.6318  0.8898 -4.3576
siesta:    6   -12241.9477   -12288.1663   -12288.2118  0.8810 -3.7988
siesta:    7   -12237.7853   -12278.5920   -12278.6302  0.8204 -3.7469
siesta:    8   -12230.9670   -12256.1299   -12256.1690  0.6249 -3.8406
siesta:    9   -12231.0836   -12248.0904   -12248.1393  0.4730 -3.8295
siesta:   10   -12232.3298   -12230.1257   -12230.1773  0.3013 -3.9248
siesta:   11   -12230.7309   -12225.6986   -12225.7801  0.2732 -3.8293
siesta:   12   -12230.7823   -12219.6775   -12219.7281  0.2596 -3.8127
siesta:   13   -12230.3510   -12217.0015   -12217.0760  0.2428 -3.8103
siesta:   14   -12229.8096   -12222.7158   -12222.7716  0.1859 -3.8376
siesta:   15   -12229.3975   -12226.5613   -12226.6229  0.1235 -3.8883
siesta:   16   -12229.2355   -12228.4970   -12228.5330  0.0922 -3.8959
siesta:   17   -12229.0641   -12229.7429   -12229.7830  0.0880 -3.9062
siesta:   18   -12229.0218   -12228.7938   -12228.8527  0.0814 -3.8860
siesta:   19   -12229.0070   -12228.9020   -12228.9591  0.0753 -3.8726
siesta:   20   -12228.9991   -12229.4870   -12229.5424  0.0610 -3.8629
siesta:   21   -12228.9932   -12230.3342   -12230.3896  0.0411 -3.8612
siesta:   22   -12228.9891   -12230.5869   -12230.6414  0.0325 -3.8609
siesta:   23   -12228.9843   -12230.7967   -12230.8511  0.0284 -3.8583
siesta:   24   -12228.9811   -12230.4640   -12230.5186  0.0161 -3.8535
siesta:   25   -12228.9810   -12229.9091   -12229.9647  0.0114 -3.8527
siesta:   26   -12228.9802   -12229.3766   -12229.4315  0.0055 -3.8511
siesta:   27   -12228.9799   -12229.2349   -12229.2898  0.0051 -3.8524
siesta:   28   -12228.9796   -12229.2740   -12229.3288  0.0031 -3.8537
siesta:   29   -12228.9796   -12229.2470   -12229.3021  0.0021 -3.8537
siesta:   30   -12228.9796   -12229.1488   -12229.2038  0.0015 -3.8544
siesta:   31   -12228.9797   -12229.0871   -12229.1421  0.0008 -3.8544
siesta:   32   -12228.9797   -12229.0660   -12229.1208  0.0006 -3.8546
siesta:   33   -12228.9797   -12229.0464   -12229.1013  0.0005 -3.8545
siesta:   34   -12228.9796   -12229.0217   -12229.0766  0.0004 -3.8545
siesta:   35   -12228.9796   -12229.0116   -12229.0666  0.0003 -3.8545
siesta:   36   -12228.9796   -12228.9937   -12229.0487  0.0001 -3.8544

siesta: E_KS(eV) =           -12228.9863

siesta: E_KS - E_eggbox =    -12228.9863

siesta: Atomic forces (eV/Ang):
----------------------------------------
   Tot    0.060344   -0.183032    0.000000
----------------------------------------
   Max  686.054041
   Res  172.720120    sqrt( Sum f_i^2 / 3N )
----------------------------------------
   Max  686.054041    constrained

Stress-tensor-Voigt (kbar):     -732.59    -3028.44       -0.10      -23.98        0.00        0.00
(Free)E + p*V (eV/cell)   -10747.6003
Target enthalpy (eV/cell)   -12229.0413

siesta: Stress tensor (static) (eV/Ang**3):
        -0.457241   -0.014966    0.000000
        -0.014966   -1.890181    0.000000
         0.000000    0.000000   -0.000063

siesta: Pressure (static):       1253.70906964  kBar

siesta: Stress tensor (total) (eV/Ang**3):
        -0.457241   -0.014966    0.000000
        -0.014966   -1.890181    0.000000
         0.000000    0.000000   -0.000063

siesta: Pressure (total):       1253.70906964  kBar

siesta: Temp_ion =       0.000 K

* Maximum dynamic memory allocated =   206 MB
Computing bands...

siesta: Program's energy decomposition (eV):
siesta: Ebs     =     -4944.887789
siesta: Eions   =     20974.960578
siesta: Ena     =      4891.339718
siesta: Ekin    =     10770.936564
siesta: Enl     =     -1500.699518
siesta: DEna    =      -786.608349
siesta: DUscf   =       110.012832
siesta: DUext   =         0.000000
siesta: Exc     =     -4739.007000
siesta: eta*DQ  =         0.000000
siesta: Emadel  =         0.000000
siesta: Emeta   =         0.000000
siesta: Emolmec =         0.000000
siesta: Ekinion =         0.000000
siesta: Eharris =    -12228.979645
siesta: Etot    =    -12228.986332
siesta: FreeEng =    -12229.041275

siesta: Final energy (eV):
siesta:  Band Struct. =   -4944.887789
siesta:       Kinetic =   10770.936564
siesta:       Hartree =   34892.820628
siesta:    Ext. field =       0.000000
siesta:   Exch.-corr. =   -4739.007000
siesta:  Ion-electron =  -80115.927631
siesta:       Ion-ion =   26962.191107
siesta:       Ekinion =       0.000000
siesta:         Total =  -12228.986332

siesta: Atomic forces (eV/Ang):
siesta:      1    4.284104    1.387011    0.000000
siesta:      2  -35.153131  -15.788342    0.000000
siesta:      3   13.771204  685.766848    0.000000
siesta:      4    1.145466   -4.700680    0.000000
siesta:      5    0.230161   -0.396347    0.000000
siesta:      6    1.388442    1.741251    0.000000
siesta:      7   -1.153220    2.473940    0.000000
siesta:      8   -0.590987    0.161337    0.000000
siesta:      9   -1.551298   -1.715760    0.000000
siesta:     10   -0.187668    0.059569    0.000000
siesta:     11    0.878870   -0.629527    0.000000
siesta:     12   -0.205186   -2.884163    0.000000
siesta:     13   -1.297296    5.581146    0.000000
siesta:     14  -12.101654 -686.054041    0.000000
siesta:     15   33.847789   12.390860    0.000000
siesta:     16    3.803401 -672.569797    0.000000
siesta:     17    6.833000  642.022825    0.000000
siesta:     18    3.732870 -122.263447    0.000000
siesta:     19    1.370400  129.237469    0.000000
siesta:     20  -21.048466 -552.658115    0.000000
siesta:     21   -2.190780  128.306539    0.000000
siesta:     22   14.271919 -547.127263    0.000000
siesta:     23   25.689485    9.873813    0.000000
siesta:     24   31.405742 -550.951676    0.000000
siesta:     25   -1.491653   -1.334684    0.000000
siesta:     26    0.616251    1.792895    0.000000
siesta:     27   -1.634284    1.946813    0.000000
siesta:     28  -26.191657    6.250587    0.000000
siesta:     29  -33.416440 -550.244483    0.000000
siesta:     30   27.712686  655.572157    0.000000
siesta:     31   -0.171176 -122.824968    0.000000
siesta:     32   33.692744  551.806883    0.000000
siesta:     33   26.560550   -5.860656    0.000000
siesta:     34   -2.863829   -1.777720    0.000000
siesta:     35    2.827378   -0.016177    0.000000
siesta:     36   -1.367283   -0.503024    0.000000
siesta:     37    2.226914   -2.005586    0.000000
siesta:     38   -0.195015    6.852486    0.000000
siesta:     39   -0.213522   -6.297372    0.000000
siesta:     40  -15.615051  550.205683    0.000000
siesta:     41    0.705788 -128.206346    0.000000
siesta:     42   -2.850511  547.287020    0.000000
siesta:     43   -1.148517 -127.892763    0.000000
siesta:     44   25.320239  557.247383    0.000000
siesta:     45   25.115605  -11.199205    0.000000
siesta:     46   -2.107556    3.785647    0.000000
siesta:     47   -0.030702   -1.295774    0.000000
siesta:     48   -1.271128    1.225720    0.000000
siesta:     49   -0.945335   -0.537641    0.000000
siesta:     50  -33.972644  550.245519    0.000000
siesta:     51  -26.376815   -6.965314    0.000000
siesta:     52  -11.849322  559.778982    0.000000
siesta:     53    2.919383   -0.819953    0.000000
siesta:     54   -2.388561   -0.047190    0.000000
siesta:     55    1.516907   -0.766953    0.000000
siesta:     56   -1.229861   -1.975153    0.000000
siesta:     57    0.539053    0.403688    0.000000
siesta:     58    1.242951   -1.014197    0.000000
siesta:     59    0.316680    7.003925    0.000000
siesta:     60    0.309269   -6.925246    0.000000
siesta:     61   -2.046945    1.917447    0.000000
siesta:     62    1.037320    0.590336    0.000000
siesta:     63   -0.077309    1.221418    0.000000
siesta:     64    2.119730   -3.930089    0.000000
siesta:     65  -25.236763   11.673161    0.000000
siesta:     66  -20.224191 -556.790524    0.000000
siesta:     67   -2.393176    0.249100    0.000000
siesta:     68    2.459739    1.615792    0.000000
siesta:     69   -4.061289  128.253767    0.000000
siesta:     70    5.430501 -546.497540    0.000000
siesta:     71   -1.452603  120.021074    0.000000
siesta:     72   -6.959376 -642.665405    0.000000
siesta: ----------------------------------------
siesta:    Tot    0.060344   -0.183032    0.000000

siesta: Stress tensor (static) (eV/Ang**3):
siesta:    -0.457241   -0.014966    0.000000
siesta:    -0.014966   -1.890181    0.000000
siesta:     0.000000    0.000000   -0.000063

siesta: Cell volume =       1893.226884 Ang**3

siesta: Pressure (static):
siesta:                Solid            Molecule  Units
siesta:           0.00852237          0.13488489  Ry/Bohr**3
siesta:           0.78249520         12.38467211  eV/Ang**3
siesta:        1253.70906964      19842.64674521  kBar
(Free)E+ p_basis*V_orbitals  =      -12200.591075
(Free)Eharris+ p_basis*V_orbitals  =      -12200.577003

siesta: Electric dipole (a.u.)  =    0.000000    0.000000    0.000000
siesta: Electric dipole (Debye) =    0.000000    0.000000    0.000000

* Maximum dynamic memory allocated : Node    0 =   206 MB
* Maximum dynamic memory allocated : Node    1 =    73 MB
* Maximum dynamic memory allocated : Node    2 =    74 MB
* Maximum dynamic memory allocated : Node    3 =   196 MB
* Maximum dynamic memory allocated : Node    4 =   184 MB
* Maximum dynamic memory allocated : Node    5 =    70 MB
* Maximum dynamic memory allocated : Node    6 =    72 MB
* Maximum dynamic memory allocated : Node    7 =   171 MB

* Maximum memory occured during matrixMtoO                    

timer: CPU execution times:
timer:  Routine       Calls   Time/call    Tot.time        %
timer:  siesta            1  121831.008  121831.008   100.00
timer:  Setup             1       2.690       2.690     0.00
timer:  bands             3     243.693     731.080     0.60
timer:  writewave         1       0.016       0.016     0.00
timer:  KSV_init          1       0.003       0.003     0.00
timer:  IterMD            1  121092.011  121092.011    99.39
timer:  hsparse           1       0.285       0.285     0.00
timer:  overlap           1       7.136       7.136     0.01
timer:  IterSCF          36    3359.332  120935.940    99.27
timer:  kinefsm           2       3.679       7.358     0.01
timer:  nlefsm            2      17.539      35.079     0.03
timer:  DHSCF            37      78.387    2900.310     2.38
timer:  DHSCF1            1       0.743       0.743     0.00
timer:  DHSCF2            1      31.483      31.483     0.03
timer:  REORD           298       0.005       1.525     0.00
timer:  POISON           38       0.869      33.028     0.03
timer:  DHSCF3           37      76.714    2838.400     2.33
timer:  rhoofd           37      16.074     594.748     0.49
timer:  cellXC           37       3.308     122.400     0.10
timer:  vmat             37      35.596    1317.065     1.08
timer:  MolMec            2       0.000       0.000     0.00
timer:  diagon           36    3280.184  118086.617    96.93
timer:  c-eigval       8437       6.028   50856.278    41.74
timer:  c-buildHS      8437       0.048     401.055     0.33
timer:  cdiag         16753       6.165  103290.054    84.78
timer:  cdiag1        16753       0.385    6443.409     5.29
timer:  cdiag2        16753       1.767   29598.328    24.29
timer:  cdiag3        16753       3.736   62583.743    51.37
timer:  cdiag4        16753       0.151    2528.163     2.08
timer:  c-eigvec       8316       6.392   53155.325    43.63
timer:  c-buildD       8316       1.775   14763.517    12.12
timer:  DHSCF4            1      28.741      28.741     0.02
timer:  dfscf             1      26.859      26.859     0.02
timer:  overfsm           1       0.382       0.382     0.00
timer:  optical           1       4.568       4.568     0.00
  

elaps: ELAPSED times:
elaps:  Routine       Calls   Time/call    Tot.time        %
elaps:  siesta            1   15258.155   15258.155   100.00
elaps:  Setup             1       0.337       0.337     0.00
elaps:  bands             3      30.537      91.611     0.60
elaps:  writewave         1       0.002       0.002     0.00
elaps:  KSV_init          1       0.000       0.000     0.00
elaps:  IterMD            1   15165.604   15165.604    99.39
elaps:  hsparse           1       0.036       0.036     0.00
elaps:  overlap           1       0.902       0.902     0.01
elaps:  IterSCF          36     420.724   15146.060    99.27
elaps:  kinefsm           2       0.465       0.930     0.01
elaps:  nlefsm            2       2.205       4.410     0.03
elaps:  DHSCF            37       9.927     367.311     2.41
elaps:  DHSCF1            1       0.095       0.095     0.00
elaps:  DHSCF2            1       3.942       3.942     0.03
elaps:  REORD           298       0.001       0.199     0.00
elaps:  POISON           38       0.109       4.158     0.03
elaps:  DHSCF3           37       9.608     355.510     2.33
elaps:  rhoofd           37       4.602     170.264     1.12
elaps:  cellXC           37       0.414      15.324     0.10
elaps:  vmat             37       4.458     164.962     1.08
elaps:  MolMec            2       0.000       0.000     0.00
elaps:  diagon           36     410.819   14789.499    96.93
elaps:  c-eigval       8437       0.755    6369.128    41.74
elaps:  c-buildHS      8437       0.006      54.329     0.36
elaps:  cdiag         16753       0.767   12855.878    84.26
elaps:  cdiag1        16753       0.048     803.400     5.27
elaps:  cdiag2        16753       0.221    3707.682    24.30
elaps:  cdiag3        16753       0.468    7848.346    51.44
elaps:  cdiag4        16753       0.019     313.562     2.06
elaps:  c-eigvec       8316       0.792    6584.621    43.15
elaps:  c-buildD       8316       0.231    1919.869    12.58
elaps:  DHSCF4            1       7.650       7.650     0.05
elaps:  dfscf             1       7.238       7.238     0.05
elaps:  overfsm           1       0.049       0.049     0.00
elaps:  optical           1       0.000       0.000     0.00
  
>> End of run:   2-MAY-2016  15:12:58
