Siesta Version:                                        siesta-3.2-pl-3
Architecture  : x86_64-unknown-linux-gnu--unknown
Compiler flags: mpiifort -g -O2 -fPIC -xSSE4.1 -fp-model source -shared-intel 
PARALLEL version

* Running on    8 nodes in parallel
>> Start of run:  26-APR-2016  10:25:21

                           ***********************       
                           *  WELCOME TO SIESTA  *       
                           ***********************       

reinit: Reading from standard input
************************** Dump of input data file ****************************
#(1) General system descriptors
SystemName            GRP_doping    # Descriptive name of the system
SystemLabel           GRP_doping    # Short name for naming files
%include STRUCT.fdf
%include KPT.fdf
%include BASIS.fdf
#%include TS.fdf # for transiesta calculation
#(4) DFT, Grid, SCF
XC.functional         GGA           # LDA or GGA (default = LDA)
XC.authors            PBE           # CA (Ceperley-Aldr) = PZ
                                    #    (Perdew-Zunger) - LDA - Default
                                    # PW92 (Perdew-Wang-92) - LDA
                                    # PBE (Perdew-Burke-Ernzerhof) - GGA
MeshCutoff            200.000000    Ry      # Default: 50.0 Ry ~ 0.444 Bohr
                                    #         100.0 Ry ~ 0.314 Bohr
MaxSCFIterations      500           # Default: 50
DM.MixingWeight       0.05          # Default: 0.25
DM.NumberPulay        10            # Default: 0
DM.PulayOnFile        F             # SystemLabel.P1, SystemLabel.P2
DM.Tolerance          1.d-4         # Default: 1.d-4
DM.UseSaveDM          .true.        # because of the bug
SCFMustConverge       .true.
NeglNonOverlapInt     F             # Default: F
#(5) Eigenvalue problem: order-N or diagonalization
SolutionMethod        Diagon        # or Transiesta
ElectronicTemperature 300.0 K       # Default: 300.0 K
#(6) Molecular dynamics and relaxations
#MD.TypeOfRun          CG            # Type of dynamics:
#MD.VariableCell       F
#MD.NumCGsteps         0           # 0 for single-point / 100 for gopt
#MD.MaxCGDispl         0.2 Bohr      # Default: 0.2 Bohr
#MD.MaxForceTol        0.02 eV/Ang   # Default: 0.04 eV/Ang
#MD.MaxStressTol       1.0 GPa       # Default: 1.0 GPa
# Geometry Constraints
#%block GeometryConstraints
#	position from 1 to 44
#%endblock GeometryConstraints
BandLinesScale   pi/a
%block BandLines
 1   0.00000000  0.00000000  0.00000000
50   0.00000000  0.07809418  0.00000000
50   0.04509075  0.07809242  0.00000000
20   0.00000000  0.00000000  0.00000000
%endblock BandLines
************************** End of input data file *****************************

reinit: -----------------------------------------------------------------------
reinit: System Name: GRP_doping
reinit: -----------------------------------------------------------------------
reinit: System Label: GRP_doping                                                  
reinit: -----------------------------------------------------------------------

initatom: Reading input for the pseudopotentials and atomic orbitals ----------
 Species number:            1  Label: N Atomic number:           7
 Species number:            2  Label: C Atomic number:           6
Ground state valence configuration:   2s02  2p03
Reading pseudopotential information in formatted form from N.psf

Valence configuration for pseudopotential generation:
2s( 2.00) rc: 1.48
2p( 3.00) rc: 1.48
3d( 0.00) rc: 1.48
4f( 0.00) rc: 1.48
Ground state valence configuration:   2s02  2p02
Reading pseudopotential information in formatted form from C.psf

Valence configuration for pseudopotential generation:
2s( 2.00) rc: 1.54
2p( 2.00) rc: 1.54
3d( 0.00) rc: 1.54
4f( 0.00) rc: 1.54
For N, standard SIESTA heuristics set lmxkb to 3
 (one more than the basis l, including polarization orbitals).
Use PS.lmax or PS.KBprojectors blocks to override.
For C, standard SIESTA heuristics set lmxkb to 3
 (one more than the basis l, including polarization orbitals).
Use PS.lmax or PS.KBprojectors blocks to override.

<basis_specs>
===============================================================================
N                    Z=   7    Mass=  14.010        Charge= 0.17977+309
Lmxo=1 Lmxkb= 3    BasisType=split      Semic=F
L=0  Nsemic=0  Cnfigmx=2
          n=1  nzeta=2  polorb=0
            splnorm:   0.15000    
               vcte:    0.0000    
               rinn:    0.0000    
                rcs:    0.0000      0.0000    
            lambdas:    1.0000      1.0000    
L=1  Nsemic=0  Cnfigmx=2
          n=1  nzeta=2  polorb=1
            splnorm:   0.15000    
               vcte:    0.0000    
               rinn:    0.0000    
                rcs:    0.0000      0.0000    
            lambdas:    1.0000      1.0000    
-------------------------------------------------------------------------------
L=0  Nkbl=1  erefs: 0.17977+309
L=1  Nkbl=1  erefs: 0.17977+309
L=2  Nkbl=1  erefs: 0.17977+309
L=3  Nkbl=1  erefs: 0.17977+309
===============================================================================
</basis_specs>

atom: Called for N                     (Z =   7)

read_vps: Pseudopotential generation method:
read_vps: ATM3      Troullier-Martins                       
Total valence charge:    5.00000

read_vps: Pseudopotential includes a core correction:
read_vps: Pseudo-core for xc-correction

xc_check: Exchange-correlation functional:
xc_check: GGA Perdew, Burke & Ernzerhof 1996
V l=0 = -2*Zval/r beyond r=  1.4606
V l=1 = -2*Zval/r beyond r=  1.4606
V l=2 = -2*Zval/r beyond r=  1.4606
V l=3 = -2*Zval/r beyond r=  1.4606
All V_l potentials equal beyond r=  1.4606
This should be close to max(r_c) in ps generation
All pots = -2*Zval/r beyond r=  1.4606

VLOCAL1: 99.0% of the norm of Vloc inside     20.347 Ry
VLOCAL1: 99.9% of the norm of Vloc inside     46.372 Ry
atom: Maximum radius for 4*pi*r*r*local-pseudopot. charge    1.76189
atom: Maximum radius for r*vlocal+2*Zval:    1.53550
GHOST: No ghost state for L =  0
GHOST: No ghost state for L =  1
GHOST: No ghost state for L =  2
GHOST: No ghost state for L =  3

KBgen: Kleinman-Bylander projectors: 
   l= 0   rc=  1.634559   el= -1.363963   Ekb=  5.296955   kbcos=  0.335621
   l= 1   rc=  1.614250   el= -0.521451   Ekb= -5.259161   kbcos= -0.433408
   l= 2   rc=  1.718383   el=  0.001991   Ekb= -1.271464   kbcos= -0.007566
   l= 3   rc=  1.761893   el=  0.003093   Ekb= -0.494769   kbcos= -0.001015

KBgen: Total number of  Kleinman-Bylander projectors:   16
atom: -------------------------------------------------------------------------

atom: SANKEY-TYPE ORBITALS:
atom: Selected multiple-zeta basis: split     

SPLIT: Orbitals with angular momentum L= 0

SPLIT: Basis orbitals for state 2s

SPLIT: PAO cut-off radius determined from an
SPLIT: energy shift=  0.007350 Ry

   izeta = 1
                 lambda =    1.000000
                     rc =    4.071465
                 energy =   -1.356470
                kinetic =    1.176977
    potential(screened) =   -2.533447
       potential(ionic) =   -8.057990

   izeta = 2
                 rmatch =    2.905100
              splitnorm =    0.150000
                 energy =   -1.158343
                kinetic =    1.813009
    potential(screened) =   -2.971352
       potential(ionic) =   -8.901931

SPLIT: Orbitals with angular momentum L= 1

SPLIT: Basis orbitals for state 2p

SPLIT: PAO cut-off radius determined from an
SPLIT: energy shift=  0.007350 Ry

   izeta = 1
                 lambda =    1.000000
                     rc =    4.972977
                 energy =   -0.513884
                kinetic =    3.441732
    potential(screened) =   -3.955616
       potential(ionic) =   -9.287901

   izeta = 2
                 rmatch =    3.054066
              splitnorm =    0.150000
                 energy =   -0.318226
                kinetic =    5.125348
    potential(screened) =   -5.443573
       potential(ionic) =  -11.380999

POLgen: Perturbative polarization orbital with L=  2

POLgen: Polarization orbital for state 2p

   izeta = 1
                     rc =    4.972977
                 energy =    1.607437
                kinetic =    3.268125
    potential(screened) =   -1.660688
       potential(ionic) =   -5.973652
atom: Total number of Sankey-type orbitals: 13

atm_pop: Valence configuration (for local Pseudopot. screening):
 2s( 2.00)                                                            
 2p( 3.00)                                                            
Vna: chval, zval:    5.00000   5.00000

Vna:  Cut-off radius for the neutral-atom potential:   4.972977
comcore: Pseudo-core radius Rcore=  1.554824

atom: _________________________________________________________________________

<basis_specs>
===============================================================================
C                    Z=   6    Mass=  12.010        Charge= 0.17977+309
Lmxo=1 Lmxkb= 3    BasisType=split      Semic=F
L=0  Nsemic=0  Cnfigmx=2
          n=1  nzeta=2  polorb=0
            splnorm:   0.15000    
               vcte:    0.0000    
               rinn:    0.0000    
                rcs:    0.0000      0.0000    
            lambdas:    1.0000      1.0000    
L=1  Nsemic=0  Cnfigmx=2
          n=1  nzeta=2  polorb=1
            splnorm:   0.15000    
               vcte:    0.0000    
               rinn:    0.0000    
                rcs:    0.0000      0.0000    
            lambdas:    1.0000      1.0000    
-------------------------------------------------------------------------------
L=0  Nkbl=1  erefs: 0.17977+309
L=1  Nkbl=1  erefs: 0.17977+309
L=2  Nkbl=1  erefs: 0.17977+309
L=3  Nkbl=1  erefs: 0.17977+309
===============================================================================
</basis_specs>

atom: Called for C                     (Z =   6)

read_vps: Pseudopotential generation method:
read_vps: ATM3      Troullier-Martins                       
Total valence charge:    4.00000

read_vps: Pseudopotential includes a core correction:
read_vps: Pseudo-core for xc-correction

xc_check: Exchange-correlation functional:
xc_check: GGA Perdew, Burke & Ernzerhof 1996
V l=0 = -2*Zval/r beyond r=  1.5227
V l=1 = -2*Zval/r beyond r=  1.5227
V l=2 = -2*Zval/r beyond r=  1.5227
V l=3 = -2*Zval/r beyond r=  1.5038
All V_l potentials equal beyond r=  1.5227
This should be close to max(r_c) in ps generation
All pots = -2*Zval/r beyond r=  1.5227

VLOCAL1: 99.0% of the norm of Vloc inside     18.722 Ry
VLOCAL1: 99.9% of the norm of Vloc inside     42.668 Ry
atom: Maximum radius for 4*pi*r*r*local-pseudopot. charge    1.83678
atom: Maximum radius for r*vlocal+2*Zval:    1.58088
GHOST: No ghost state for L =  0
GHOST: No ghost state for L =  1
GHOST: No ghost state for L =  2
GHOST: No ghost state for L =  3

KBgen: Kleinman-Bylander projectors: 
   l= 0   rc=  1.704034   el= -1.009801   Ekb=  5.335044   kbcos=  0.316824
   l= 1   rc=  1.704034   el= -0.388707   Ekb= -3.785862   kbcos= -0.366464
   l= 2   rc=  1.791422   el=  0.001971   Ekb= -0.970471   kbcos= -0.009212
   l= 3   rc=  1.859892   el=  0.003065   Ekb= -0.399525   kbcos= -0.001223

KBgen: Total number of  Kleinman-Bylander projectors:   16
atom: -------------------------------------------------------------------------

atom: SANKEY-TYPE ORBITALS:
atom: Selected multiple-zeta basis: split     

SPLIT: Orbitals with angular momentum L= 0

SPLIT: Basis orbitals for state 2s

SPLIT: PAO cut-off radius determined from an
SPLIT: energy shift=  0.007350 Ry

   izeta = 1
                 lambda =    1.000000
                     rc =    4.632753
                 energy =   -1.002270
                kinetic =    0.855760
    potential(screened) =   -1.858031
       potential(ionic) =   -5.417575

   izeta = 2
                 rmatch =    3.431921
              splitnorm =    0.150000
                 energy =   -0.867111
                kinetic =    1.300804
    potential(screened) =   -2.167915
       potential(ionic) =   -5.962684

SPLIT: Orbitals with angular momentum L= 1

SPLIT: Basis orbitals for state 2p

SPLIT: PAO cut-off radius determined from an
SPLIT: energy shift=  0.007350 Ry

   izeta = 1
                 lambda =    1.000000
                     rc =    5.658549
                 energy =   -0.381140
                kinetic =    2.399701
    potential(screened) =   -2.780841
       potential(ionic) =   -6.206085

   izeta = 2
                 rmatch =    3.653288
              splitnorm =    0.150000
                 energy =   -0.249149
                kinetic =    3.542762
    potential(screened) =   -3.791911
       potential(ionic) =   -7.581078

POLgen: Perturbative polarization orbital with L=  2

POLgen: Polarization orbital for state 2p

   izeta = 1
                     rc =    5.658549
                 energy =    1.109913
                kinetic =    2.304789
    potential(screened) =   -1.194876
       potential(ionic) =   -4.013592
atom: Total number of Sankey-type orbitals: 13

atm_pop: Valence configuration (for local Pseudopot. screening):
 2s( 2.00)                                                            
 2p( 2.00)                                                            
Vna: chval, zval:    4.00000   4.00000

Vna:  Cut-off radius for the neutral-atom potential:   5.658549
comcore: Pseudo-core radius Rcore=  1.791422

atom: _________________________________________________________________________

prinput: Basis input ----------------------------------------------------------

PAO.BasisType split     

%block ChemicalSpeciesLabel
    1    7 N                       # Species index, atomic number, species label
    2    6 C                       # Species index, atomic number, species label
%endblock ChemicalSpeciesLabel

%block PAO.Basis                 # Define Basis set
N                     2                    # Species label, number of l-shells
 n=2   0   2                         # n, l, Nzeta 
   4.071      2.905   
   1.000      1.000   
 n=2   1   2 P   1                   # n, l, Nzeta, Polarization, NzetaPol
   4.973      3.054   
   1.000      1.000   
C                     2                    # Species label, number of l-shells
 n=2   0   2                         # n, l, Nzeta 
   4.633      3.432   
   1.000      1.000   
 n=2   1   2 P   1                   # n, l, Nzeta, Polarization, NzetaPol
   5.659      3.653   
   1.000      1.000   
%endblock PAO.Basis

prinput: ----------------------------------------------------------------------

coor:   Atomic-coordinates input format  =     Fractional

siesta: Atomic coordinates (Bohr) and species
siesta:      4.63094  34.85847   0.00000  1        1
siesta:      6.95932  30.82560   0.00000  1        2
siesta:      6.95932  33.51406   0.00000  1        3
siesta:      6.95932  17.38257   0.00000  1        4
siesta:      2.30256  14.69411   0.00000  1        5
siesta:      2.30256  17.38257   0.00000  1        6
siesta:      4.63094  18.72698   0.00000  1        7
siesta:      4.63094  21.41544   0.00000  1        8
siesta:      6.95932  25.44831   0.00000  1        9
siesta:     -0.02582  18.72698   0.00000  1       10
siesta:     -0.02582  21.41544   0.00000  1       11
siesta:      2.30256  22.75985   0.00000  1       12
siesta:     -4.68258  21.41544   0.00000  1       13
siesta:     -2.35420  22.75985   0.00000  1       14
siesta:     -7.01096  22.75985   0.00000  1       15
siesta:     -7.01096  25.44831   0.00000  1       16
siesta:      4.63094  26.79272   0.00000  1       17
siesta:     -4.68258  26.79272   0.00000  1       18
siesta:     -4.68258  29.48119   0.00000  1       19
siesta:      2.30256  33.51406   0.00000  1       20
siesta:     -2.35420  30.82560   0.00000  1       21
siesta:     -2.35420  33.51406   0.00000  1       22
siesta:     -0.02582  34.85847   0.00000  1       23
siesta:     -0.02582   2.59549   0.00000  2       24
siesta:     -0.02582   5.28395   0.00000  2       25
siesta:     -2.35420  38.89134   0.00000  2       26
siesta:     -2.35420  41.57980   0.00000  2       27
siesta:      2.30256  38.89134   0.00000  2       28
siesta:      2.30256  41.57980   0.00000  2       29
siesta:      4.63094  37.54693   0.00000  2       30
siesta:      9.28770  26.79272   0.00000  2       31
siesta:      9.28770  29.48119   0.00000  2       32
siesta:     -4.68258  34.85847   0.00000  2       33
siesta:     -4.68258  37.54693   0.00000  2       34
siesta:      2.30256   6.62836   0.00000  2       35
siesta:      2.30256   9.31683   0.00000  2       36
siesta:      4.63094  10.66124   0.00000  2       37
siesta:      4.63094  13.34970   0.00000  2       38
siesta:      6.95932  14.69411   0.00000  2       39
siesta:      9.28770  18.72698   0.00000  2       40
siesta:      9.28770  21.41544   0.00000  2       41
siesta:     11.61608  22.75985   0.00000  2       42
siesta:     11.61608  25.44831   0.00000  2       43
siesta:     -2.35420   6.62836   0.00000  2       44
siesta:     -2.35420   9.31683   0.00000  2       45
siesta:     -0.02582  10.66124   0.00000  2       46
siesta:     -0.02582  13.34970   0.00000  2       47
siesta:      6.95932  22.75985   0.00000  2       48
siesta:     -4.68258  10.66124   0.00000  2       49
siesta:     -4.68258  13.34970   0.00000  2       50
siesta:     -2.35420  14.69411   0.00000  2       51
siesta:     -2.35420  17.38257   0.00000  2       52
siesta:      2.30256  25.44831   0.00000  2       53
siesta:     -7.01096  14.69411   0.00000  2       54
siesta:     -7.01096  17.38257   0.00000  2       55
siesta:     -4.68258  18.72698   0.00000  2       56
siesta:     -2.35420  25.44831   0.00000  2       57
siesta:     -9.33934  18.72698   0.00000  2       58
siesta:     -9.33934  21.41544   0.00000  2       59
siesta:    -11.66772  22.75985   0.00000  2       60
siesta:    -11.66772  25.44831   0.00000  2       61
siesta:     -9.33934  26.79272   0.00000  2       62
siesta:     -9.33934  29.48119   0.00000  2       63
siesta:      4.63094  29.48119   0.00000  2       64
siesta:     -0.02582  26.79272   0.00000  2       65
siesta:     -0.02582  29.48119   0.00000  2       66
siesta:      2.30256  30.82560   0.00000  2       67
siesta:     -7.01096  30.82560   0.00000  2       68
siesta:     -7.01096  33.51406   0.00000  2       69
siesta:     -0.02582  37.54693   0.00000  2       70
siesta:     -0.02582  42.92421   0.00000  2       71
siesta:     -0.02582  45.61267   0.00000  2       72

siesta: System type = slab      

initatomlists: Number of atoms, orbitals, and projectors:     72   936  1152

siesta: ******************** Simulation parameters ****************************
siesta:
siesta: The following are some of the parameters of the simulation.
siesta: A complete list of the parameters used, including default values,
siesta: can be found in file out.fdf
siesta:
redata: Non-Collinear-spin run           =     F
redata: SpinPolarized (Up/Down) run      =     F
redata: Number of spin components        =     1
redata: Long output                      =     F
redata: Number of Atomic Species         =        2
redata: Charge density info will appear in .RHO file
redata: Write Mulliken Pop.              =     NO
redata: Mesh Cutoff                      =   200.0000  Ry
redata: Net charge of the system         =     0.0000 |e|
redata: Max. number of SCF Iter          =      500
redata: SCF convergence failure will abort job
redata: Performing Pulay mixing using    =    10 iterations
redata: Mix DM in first SCF step ?       =     F
redata: Write Pulay info on disk?        =     F
redata: Discard 1st Pulay DM after  kick =     F
redata: New DM Mixing Weight             =     0.0500
redata: New DM Occupancy tolerance       = 0.000000000001
redata: No kicks to SCF
redata: DM Mixing Weight for Kicks       =     0.5000
redata: DM Tolerance for SCF             =     0.000100
redata: Require Energy convergence for SCF =     F
redata: DM Energy tolerance for SCF      =     0.000100 eV
redata: Require Harris convergence for SCF =     F
redata: DM Harris energy tolerance for SCF =     0.000100 eV
redata: Using Saved Data (generic)   =     F
redata: Use continuation files for DM    =     T
redata: Neglect nonoverlap interactions  =     F
redata: Method of Calculation            =     Diagonalization
redata: Divide and Conquer               =     T
redata: Electronic Temperature           =     0.0019  Ry
redata: Fix the spin of the system       =     F
redata: Dynamics option                  =     Verlet MD run
redata: Initial MD time step             =        1
redata:   Final MD time step             =        1
redata: Length of MD time step           =     1.0000  fs
redata: Initial Temperature of MD run    =     0.0000  K
redata: Perform a MD quench              =     F
redata: ***********************************************************************
Total number of electrons:   311.000000
Total ionic charge:   311.000000

* ProcessorY, Blocksize:    2  24

k-point displ. along   1 input, could be:     0.50    0.00
k-point displ. along   2 input, could be:     0.50    0.00
 Kpoints in:          231 . Kpoints trimmed:          231

siesta: k-grid: Number of k-points =   231
siesta: k-grid: Cutoff (effective) =     5.000 Ang
siesta: k-grid: Supercell and displacements
siesta: k-grid:   21   0   0      0.500
siesta: k-grid:    0  21   0      0.500
siesta: k-grid:    0   0   1      0.000
Naive supercell factors:     2    2    2

superc: Internal auxiliary supercell:     2 x     2 x     2  =       8
superc: Number of atoms, orbitals, and projectors:    576   7488   9216

* Maximum dynamic memory allocated =     4 MB

siesta:                 ==============================
                            Begin MD step =      1
                        ==============================

superc: Internal auxiliary supercell:     2 x     2 x     2  =       8
superc: Number of atoms, orbitals, and projectors:    576   7488   9216

outcell: Unit cell vectors (Ang):
       12.804619    7.392750    0.000000
        0.000000   14.785500    0.000000
        0.000000    0.000000   10.000000

outcell: Cell vector modules (Ang)   :   14.785500   14.785500   10.000000
outcell: Cell angles (23,13,12) (deg):     90.0000     90.0000     60.0000
outcell: Cell volume (Ang**3)        :   1893.2269
New_DM. Step:     1
Initializing Density Matrix...

InitMesh: MESH =   120 x   120 x    90 =     1296000
InitMesh: Mesh cutoff (required, used) =   200.000   223.865 Ry

* Maximum dynamic memory allocated =   181 MB

stepf: Fermi-Dirac step function

siesta: Program's energy decomposition (eV):
siesta: Ebs     =     -6304.670442
siesta: Eions   =     22100.188487
siesta: Ena     =      4963.716223
siesta: Ekin    =      8308.399223
siesta: Enl     =       -26.010532
siesta: DEna    =        -0.000015
siesta: DUscf   =         0.000000
siesta: DUext   =         0.000000
siesta: Exc     =     -4744.326566
siesta: eta*DQ  =         0.000000
siesta: Emadel  =         0.000000
siesta: Emeta   =         0.000000
siesta: Emolmec =         0.000000
siesta: Ekinion =         0.000000
siesta: Eharris =    -13234.413260
siesta: Etot    =    -13598.410154
siesta: FreeEng =    -13598.410154

siesta: iscf   Eharris(eV)      E_KS(eV)   FreeEng(eV)   dDmax  Ef(eV)
siesta:    1   -13234.4133   -13598.4102   -13598.4102  5.6361 -6.7248
timer: Routine,Calls,Time,% = IterSCF        1    4099.859  99.72
elaps: Routine,Calls,Wall,% = IterSCF        1     513.066  99.73
siesta:    2   -19130.9917   -12404.8510   -12404.8820 18.4731 -7.2213
siesta:    3   -13193.8864   -13380.2041   -13380.2409  2.1326 -4.9009
siesta:    4   -13123.8936   -13261.1500   -13261.1855  1.2941 -4.2259
siesta:    5   -13081.7431   -13166.6524   -13166.6966  0.8441 -3.6244
siesta:    6   -13071.0982   -13140.2686   -13140.3178  0.7801 -3.5746
siesta:    7   -13057.8429   -13122.5959   -13122.6597  0.6743 -3.6296
siesta:    8   -13055.1515   -13109.1984   -13109.2475  0.5883 -3.6306
siesta:    9   -13053.9008   -13085.8095   -13085.8597  0.4574 -3.7308
siesta:   10   -13052.9844   -13074.9326   -13074.9980  0.4103 -3.7048
siesta:   11   -13052.8623   -13059.4053   -13059.4852  0.2338 -3.6268
siesta:   12   -13052.5865   -13052.5815   -13052.6334  0.2143 -3.6220
siesta:   13   -13052.1935   -13048.1419   -13048.2005  0.2287 -3.6714
siesta:   14   -13051.9998   -13049.1149   -13049.1807  0.1799 -3.6886
siesta:   15   -13051.7966   -13049.3763   -13049.4507  0.1291 -3.7023
siesta:   16   -13051.6838   -13049.0245   -13049.0827  0.0960 -3.7054
siesta:   17   -13051.6486   -13048.9832   -13049.0610  0.0720 -3.6986
siesta:   18   -13051.6284   -13049.4015   -13049.4738  0.0533 -3.6925
siesta:   19   -13051.6140   -13049.8397   -13049.9199  0.0363 -3.6849
siesta:   20   -13051.5982   -13050.1396   -13050.2071  0.0275 -3.6865
siesta:   21   -13051.5822   -13050.4489   -13050.5186  0.0236 -3.6884
siesta:   22   -13051.5845   -13051.1286   -13051.2054  0.0211 -3.6867
siesta:   23   -13051.5819   -13051.3999   -13051.4718  0.0208 -3.6869
siesta:   24   -13051.5828   -13051.6158   -13051.6888  0.0190 -3.6861
siesta:   25   -13051.5802   -13051.4695   -13051.5411  0.0062 -3.6858
siesta:   26   -13051.5802   -13051.4010   -13051.4744  0.0027 -3.6860
siesta:   27   -13051.5803   -13051.4110   -13051.4844  0.0025 -3.6860
siesta:   28   -13051.5800   -13051.3984   -13051.4715  0.0021 -3.6862
siesta:   29   -13051.5800   -13051.4251   -13051.4985  0.0012 -3.6865
siesta:   30   -13051.5802   -13051.5034   -13051.5769  0.0010 -3.6869
siesta:   31   -13051.5802   -13051.5406   -13051.6139  0.0009 -3.6869
siesta:   32   -13051.5801   -13051.5683   -13051.6415  0.0005 -3.6870
siesta:   33   -13051.5801   -13051.5849   -13051.6582  0.0003 -3.6870
siesta:   34   -13051.5801   -13051.5900   -13051.6632  0.0003 -3.6870
siesta:   35   -13051.5801   -13051.5899   -13051.6632  0.0003 -3.6869
siesta:   36   -13051.5801   -13051.5843   -13051.6576  0.0001 -3.6869
siesta:   37   -13051.5801   -13051.5833   -13051.6566  0.0001 -3.6869

siesta: E_KS(eV) =           -13051.5796

siesta: E_KS - E_eggbox =    -13051.5796

siesta: Atomic forces (eV/Ang):
----------------------------------------
   Tot    0.138050    0.181574    0.000000
----------------------------------------
   Max  689.936377
   Res  176.586005    sqrt( Sum f_i^2 / 3N )
----------------------------------------
   Max  689.936377    constrained

Stress-tensor-Voigt (kbar):     -688.10    -3132.78       -0.03       11.57        0.00        0.00
(Free)E + p*V (eV/cell)   -11546.6666
Target enthalpy (eV/cell)   -13051.6530

siesta: Stress tensor (static) (eV/Ang**3):
        -0.429474    0.007219    0.000000
         0.007218   -1.955305    0.000000
         0.000000    0.000000   -0.000017

siesta: Pressure (static):       1273.63501168  kBar

siesta: Stress tensor (total) (eV/Ang**3):
        -0.429474    0.007219    0.000000
         0.007218   -1.955305    0.000000
         0.000000    0.000000   -0.000017

siesta: Pressure (total):       1273.63501168  kBar

siesta: Temp_ion =       0.000 K

* Maximum dynamic memory allocated =   198 MB
Computing bands...

siesta: Program's energy decomposition (eV):
siesta: Ebs     =     -5089.802381
siesta: Eions   =     22100.188487
siesta: Ena     =      4963.716223
siesta: Ekin    =     11397.748832
siesta: Enl     =     -1715.352961
siesta: DEna    =      -792.797159
siesta: DUscf   =       112.855464
siesta: DUext   =         0.000000
siesta: Exc     =     -4917.561557
siesta: eta*DQ  =         0.000000
siesta: Emadel  =         0.000000
siesta: Emeta   =         0.000000
siesta: Emolmec =         0.000000
siesta: Ekinion =         0.000000
siesta: Eharris =    -13051.580077
siesta: Etot    =    -13051.579645
siesta: FreeEng =    -13051.652953

siesta: Final energy (eV):
siesta:  Band Struct. =   -5089.802381
siesta:       Kinetic =   11397.748832
siesta:       Hartree =   36612.877177
siesta:    Ext. field =       0.000000
siesta:   Exch.-corr. =   -4917.561557
siesta:  Ion-electron =  -84118.467983
siesta:       Ion-ion =   27973.823886
siesta:       Ekinion =       0.000000
siesta:         Total =  -13051.579645

siesta: Atomic forces (eV/Ang):
siesta:      1   30.061530   12.826759    0.000000
siesta:      2   -0.894850   -0.225815    0.000000
siesta:      3    0.483894   -2.725583    0.000000
siesta:      4    3.814448   -1.588378    0.000000
siesta:      5    5.048745  671.873349    0.000000
siesta:      6   33.896894  -13.497577    0.000000
siesta:      7   -0.214220    2.820143    0.000000
siesta:      8    2.004109    2.065979    0.000000
siesta:      9   -0.575272   -2.881461    0.000000
siesta:     10  -14.492140  685.084906    0.000000
siesta:     11   -0.327088   -6.079478    0.000000
siesta:     12    1.974139    1.160781    0.000000
siesta:     13    0.145129   -0.987155    0.000000
siesta:     14   -3.097779    2.852018    0.000000
siesta:     15    0.136525    0.519028    0.000000
siesta:     16    0.605567   -0.040586    0.000000
siesta:     17   -0.413153   -0.356450    0.000000
siesta:     18    0.901021   -2.726386    0.000000
siesta:     19   -1.490665   -2.820568    0.000000
siesta:     20    3.335601 -689.936377    0.000000
siesta:     21  -25.292162    2.541462    0.000000
siesta:     22   -9.076338 -672.444970    0.000000
siesta:     23    0.434140  120.752693    0.000000
siesta:     24  -16.627366  551.565514    0.000000
siesta:     25    0.881061 -117.402270    0.000000
siesta:     26    2.808625  126.533147    0.000000
siesta:     27  -11.578673 -548.421078    0.000000
siesta:     28    0.092919  122.966876    0.000000
siesta:     29   26.914951 -655.740678    0.000000
siesta:     30   24.522748 -550.558566    0.000000
siesta:     31    0.964132    3.358143    0.000000
siesta:     32   -0.644352    0.719387    0.000000
siesta:     33  -27.358528    8.890340    0.000000
siesta:     34  -32.420363 -549.795746    0.000000
siesta:     35   19.766222  653.173144    0.000000
siesta:     36    0.143662 -115.481855    0.000000
siesta:     37   34.281431  551.783693    0.000000
siesta:     38   25.966760   -9.470509    0.000000
siesta:     39   -1.600170    2.065942    0.000000
siesta:     40   -1.527202   -1.499299    0.000000
siesta:     41    0.308600   -1.821746    0.000000
siesta:     42   -0.251083    6.541207    0.000000
siesta:     43   -0.532909   -6.105236    0.000000
siesta:     44  -11.918690  657.086167    0.000000
siesta:     45    0.822031 -117.552154    0.000000
siesta:     46    3.707401  547.746894    0.000000
siesta:     47   -3.555456 -130.761476    0.000000
siesta:     48   -1.897976    1.498243    0.000000
siesta:     49  -34.011734  549.976928    0.000000
siesta:     50  -26.256111   -6.385378    0.000000
siesta:     51  -22.514201  559.531895    0.000000
siesta:     52  -26.208329  -10.480197    0.000000
siesta:     53    0.631563    0.313847    0.000000
siesta:     54    2.875024   -1.489234    0.000000
siesta:     55   -1.607264    0.022529    0.000000
siesta:     56    1.672018    3.006695    0.000000
siesta:     57   -1.576792    0.436626    0.000000
siesta:     58    0.890207    0.477942    0.000000
siesta:     59   -1.448512   -1.844958    0.000000
siesta:     60    0.856799    4.774509    0.000000
siesta:     61    1.181432   -4.397427    0.000000
siesta:     62   -1.724122    1.581845    0.000000
siesta:     63    1.438898    0.025503    0.000000
siesta:     64    0.271283   -1.220160    0.000000
siesta:     65    0.870008   -0.877909    0.000000
siesta:     66   16.879242 -579.339885    0.000000
siesta:     67   23.556679    5.595722    0.000000
siesta:     68   -1.955248    0.236821    0.000000
siesta:     69    2.501910    0.497566    0.000000
siesta:     70   -5.263323 -537.121415    0.000000
siesta:     71    1.858193  122.308615    0.000000
siesta:     72    8.984585 -640.953323    0.000000
siesta: ----------------------------------------
siesta:    Tot    0.138050    0.181574    0.000000

siesta: Stress tensor (static) (eV/Ang**3):
siesta:    -0.429474    0.007219    0.000000
siesta:     0.007218   -1.955305    0.000000
siesta:     0.000000    0.000000   -0.000017

siesta: Cell volume =       1893.226884 Ang**3

siesta: Pressure (static):
siesta:                Solid            Molecule  Units
siesta:           0.00865782          0.13907934  Ry/Bohr**3
siesta:           0.79493186         12.76979235  eV/Ang**3
siesta:        1273.63501168      20459.68406793  kBar
(Free)E+ p_basis*V_orbitals  =      -13024.203498
(Free)Eharris+ p_basis*V_orbitals  =      -13024.200253

siesta: Electric dipole (a.u.)  =    0.000000    0.000000    0.000000
siesta: Electric dipole (Debye) =    0.000000    0.000000    0.000000

* Maximum dynamic memory allocated : Node    0 =   198 MB
* Maximum dynamic memory allocated : Node    1 =    70 MB
* Maximum dynamic memory allocated : Node    2 =    74 MB
* Maximum dynamic memory allocated : Node    3 =   190 MB
* Maximum dynamic memory allocated : Node    4 =   183 MB
* Maximum dynamic memory allocated : Node    5 =    70 MB
* Maximum dynamic memory allocated : Node    6 =    71 MB
* Maximum dynamic memory allocated : Node    7 =   168 MB

* Maximum memory occured during matrixMtoO                    

timer: CPU execution times:
timer:  Routine       Calls   Time/call    Tot.time        %
timer:  siesta            1  150213.963  150213.963   100.00
timer:  Setup             1       3.032       3.032     0.00
timer:  bands             3     268.994     806.982     0.54
timer:  writewave         1       0.022       0.022     0.00
timer:  KSV_init          1       0.001       0.001     0.00
timer:  IterMD            1  149398.085  149398.085    99.46
timer:  hsparse           1       0.231       0.231     0.00
timer:  overlap           1       7.701       7.701     0.01
timer:  IterSCF          37    4033.271  149231.018    99.35
timer:  kinefsm           2       3.984       7.967     0.01
timer:  nlefsm            2      18.361      36.722     0.02
timer:  DHSCF            38      86.000    3268.009     2.18
timer:  DHSCF1            1       0.759       0.759     0.00
timer:  DHSCF2            1      33.410      33.410     0.02
timer:  REORD           306       0.010       3.065     0.00
timer:  POISON           39       2.245      87.546     0.06
timer:  DHSCF3           38      84.283    3202.749     2.13
timer:  rhoofd           38      16.498     626.911     0.42
timer:  cellXC           38       3.472     131.947     0.09
timer:  vmat             38      40.306    1531.616     1.02
timer:  MolMec            2       0.000       0.000     0.00
timer:  diagon           37    3946.046  146003.703    97.20
timer:  c-eigval       8668       6.663   57754.885    38.45
timer:  c-buildHS      8668       0.111     965.300     0.64
timer:  cdiag         17215       6.877  118390.423    78.81
timer:  cdiag1        17215       0.427    7347.864     4.89
timer:  cdiag2        17215       1.905   32787.455    21.83
timer:  cdiag3        17215       3.946   67929.732    45.22
timer:  cdiag4        17215       0.204    3510.009     2.34
timer:  c-eigvec       8547       7.265   62090.706    41.33
timer:  c-buildD       8547       3.149   26918.335    17.92
timer:  DHSCF4            1      29.080      29.080     0.02
timer:  dfscf             1      27.299      27.299     0.02
timer:  overfsm           1       0.400       0.400     0.00
timer:  optical           1       5.111       5.111     0.00
  

elaps: ELAPSED times:
elaps:  Routine       Calls   Time/call    Tot.time        %
elaps:  siesta            1   18796.399   18796.399   100.00
elaps:  Setup             1       0.378       0.378     0.00
elaps:  bands             3      33.676     101.027     0.54
elaps:  writewave         1       0.002       0.002     0.00
elaps:  KSV_init          1       0.000       0.000     0.00
elaps:  IterMD            1   18694.318   18694.318    99.46
elaps:  hsparse           1       0.028       0.028     0.00
elaps:  overlap           1       0.963       0.963     0.01
elaps:  IterSCF          37     504.687   18673.426    99.35
elaps:  kinefsm           2       0.493       0.986     0.01
elaps:  nlefsm            2       2.283       4.566     0.02
elaps:  DHSCF            38      10.864     412.839     2.20
elaps:  DHSCF1            1       0.098       0.098     0.00
elaps:  DHSCF2            1       4.177       4.177     0.02
elaps:  REORD           306       0.001       0.390     0.00
elaps:  POISON           39       0.281      10.951     0.06
elaps:  DHSCF3           38      10.544     400.668     2.13
elaps:  rhoofd           38       4.630     175.935     0.94
elaps:  cellXC           38       0.434      16.480     0.09
elaps:  vmat             38       5.042     191.600     1.02
elaps:  MolMec            2       0.000       0.000     0.00
elaps:  diagon           37     493.761   18269.174    97.20
elaps:  c-eigval       8668       0.834    7226.182    38.44
elaps:  c-buildHS      8668       0.015     130.337     0.69
elaps:  cdiag         17215       0.867   14933.483    79.45
elaps:  cdiag1        17215       0.053     910.499     4.84
elaps:  cdiag2        17215       0.238    4102.525    21.83
elaps:  cdiag3        17215       0.494    8510.997    45.28
elaps:  cdiag4        17215       0.026     443.721     2.36
elaps:  c-eigvec       8547       0.926    7915.469    42.11
elaps:  c-buildD       8547       0.377    3220.566    17.13
elaps:  DHSCF4            1       7.622       7.622     0.04
elaps:  dfscf             1       7.240       7.240     0.04
elaps:  overfsm           1       0.046       0.046     0.00
elaps:  optical           1       0.000       0.000     0.00
  
>> End of run:  26-APR-2016  15:38:37
