Siesta Version:                                        siesta-3.2-pl-3
Architecture  : x86_64-unknown-linux-gnu--unknown
Compiler flags: mpiifort -g -O2 -fPIC -xSSE4.1 -fp-model source -shared-intel 
PARALLEL version

* Running on    8 nodes in parallel
>> Start of run:   1-MAY-2016   1:23:23

                           ***********************       
                           *  WELCOME TO SIESTA  *       
                           ***********************       

reinit: Reading from standard input
************************** Dump of input data file ****************************
#(1) General system descriptors
SystemName            GRP_doping    # Descriptive name of the system
SystemLabel           GRP_doping    # Short name for naming files
%include STRUCT.fdf
%include KPT.fdf
%include BASIS.fdf
#%include TS.fdf # for transiesta calculation
#(4) DFT, Grid, SCF
XC.functional         GGA           # LDA or GGA (default = LDA)
XC.authors            PBE           # CA (Ceperley-Aldr) = PZ
                                    #    (Perdew-Zunger) - LDA - Default
                                    # PW92 (Perdew-Wang-92) - LDA
                                    # PBE (Perdew-Burke-Ernzerhof) - GGA
MeshCutoff            200.000000    Ry      # Default: 50.0 Ry ~ 0.444 Bohr
                                    #         100.0 Ry ~ 0.314 Bohr
MaxSCFIterations      500           # Default: 50
DM.MixingWeight       0.05          # Default: 0.25
DM.NumberPulay        10            # Default: 0
DM.PulayOnFile        F             # SystemLabel.P1, SystemLabel.P2
DM.Tolerance          1.d-4         # Default: 1.d-4
DM.UseSaveDM          .true.        # because of the bug
SCFMustConverge       .true.
NeglNonOverlapInt     F             # Default: F
#(5) Eigenvalue problem: order-N or diagonalization
SolutionMethod        Diagon        # or Transiesta
ElectronicTemperature 300.0 K       # Default: 300.0 K
#(6) Molecular dynamics and relaxations
#MD.TypeOfRun          CG            # Type of dynamics:
#MD.VariableCell       F
#MD.NumCGsteps         0           # 0 for single-point / 100 for gopt
#MD.MaxCGDispl         0.2 Bohr      # Default: 0.2 Bohr
#MD.MaxForceTol        0.02 eV/Ang   # Default: 0.04 eV/Ang
#MD.MaxStressTol       1.0 GPa       # Default: 1.0 GPa
# Geometry Constraints
#%block GeometryConstraints
#	position from 1 to 44
#%endblock GeometryConstraints
BandLinesScale   pi/a
%block BandLines
 1   0.00000000  0.00000000  0.00000000
50   0.00000000  0.07809418  0.00000000
50   0.04509075  0.07809242  0.00000000
20   0.00000000  0.00000000  0.00000000
%endblock BandLines
************************** End of input data file *****************************

reinit: -----------------------------------------------------------------------
reinit: System Name: GRP_doping
reinit: -----------------------------------------------------------------------
reinit: System Label: GRP_doping                                                  
reinit: -----------------------------------------------------------------------

initatom: Reading input for the pseudopotentials and atomic orbitals ----------
 Species number:            1  Label: N Atomic number:           7
 Species number:            2  Label: C Atomic number:           6
Ground state valence configuration:   2s02  2p03
Reading pseudopotential information in formatted form from N.psf

Valence configuration for pseudopotential generation:
2s( 2.00) rc: 1.48
2p( 3.00) rc: 1.48
3d( 0.00) rc: 1.48
4f( 0.00) rc: 1.48
Ground state valence configuration:   2s02  2p02
Reading pseudopotential information in formatted form from C.psf

Valence configuration for pseudopotential generation:
2s( 2.00) rc: 1.54
2p( 2.00) rc: 1.54
3d( 0.00) rc: 1.54
4f( 0.00) rc: 1.54
For N, standard SIESTA heuristics set lmxkb to 3
 (one more than the basis l, including polarization orbitals).
Use PS.lmax or PS.KBprojectors blocks to override.
For C, standard SIESTA heuristics set lmxkb to 3
 (one more than the basis l, including polarization orbitals).
Use PS.lmax or PS.KBprojectors blocks to override.

<basis_specs>
===============================================================================
N                    Z=   7    Mass=  14.010        Charge= 0.17977+309
Lmxo=1 Lmxkb= 3    BasisType=split      Semic=F
L=0  Nsemic=0  Cnfigmx=2
          n=1  nzeta=2  polorb=0
            splnorm:   0.15000    
               vcte:    0.0000    
               rinn:    0.0000    
                rcs:    0.0000      0.0000    
            lambdas:    1.0000      1.0000    
L=1  Nsemic=0  Cnfigmx=2
          n=1  nzeta=2  polorb=1
            splnorm:   0.15000    
               vcte:    0.0000    
               rinn:    0.0000    
                rcs:    0.0000      0.0000    
            lambdas:    1.0000      1.0000    
-------------------------------------------------------------------------------
L=0  Nkbl=1  erefs: 0.17977+309
L=1  Nkbl=1  erefs: 0.17977+309
L=2  Nkbl=1  erefs: 0.17977+309
L=3  Nkbl=1  erefs: 0.17977+309
===============================================================================
</basis_specs>

atom: Called for N                     (Z =   7)

read_vps: Pseudopotential generation method:
read_vps: ATM3      Troullier-Martins                       
Total valence charge:    5.00000

read_vps: Pseudopotential includes a core correction:
read_vps: Pseudo-core for xc-correction

xc_check: Exchange-correlation functional:
xc_check: GGA Perdew, Burke & Ernzerhof 1996
V l=0 = -2*Zval/r beyond r=  1.4606
V l=1 = -2*Zval/r beyond r=  1.4606
V l=2 = -2*Zval/r beyond r=  1.4606
V l=3 = -2*Zval/r beyond r=  1.4606
All V_l potentials equal beyond r=  1.4606
This should be close to max(r_c) in ps generation
All pots = -2*Zval/r beyond r=  1.4606

VLOCAL1: 99.0% of the norm of Vloc inside     20.347 Ry
VLOCAL1: 99.9% of the norm of Vloc inside     46.372 Ry
atom: Maximum radius for 4*pi*r*r*local-pseudopot. charge    1.76189
atom: Maximum radius for r*vlocal+2*Zval:    1.53550
GHOST: No ghost state for L =  0
GHOST: No ghost state for L =  1
GHOST: No ghost state for L =  2
GHOST: No ghost state for L =  3

KBgen: Kleinman-Bylander projectors: 
   l= 0   rc=  1.634559   el= -1.363963   Ekb=  5.296955   kbcos=  0.335621
   l= 1   rc=  1.614250   el= -0.521451   Ekb= -5.259161   kbcos= -0.433408
   l= 2   rc=  1.718383   el=  0.001991   Ekb= -1.271464   kbcos= -0.007566
   l= 3   rc=  1.761893   el=  0.003093   Ekb= -0.494769   kbcos= -0.001015

KBgen: Total number of  Kleinman-Bylander projectors:   16
atom: -------------------------------------------------------------------------

atom: SANKEY-TYPE ORBITALS:
atom: Selected multiple-zeta basis: split     

SPLIT: Orbitals with angular momentum L= 0

SPLIT: Basis orbitals for state 2s

SPLIT: PAO cut-off radius determined from an
SPLIT: energy shift=  0.007350 Ry

   izeta = 1
                 lambda =    1.000000
                     rc =    4.071465
                 energy =   -1.356470
                kinetic =    1.176977
    potential(screened) =   -2.533447
       potential(ionic) =   -8.057990

   izeta = 2
                 rmatch =    2.905100
              splitnorm =    0.150000
                 energy =   -1.158343
                kinetic =    1.813009
    potential(screened) =   -2.971352
       potential(ionic) =   -8.901931

SPLIT: Orbitals with angular momentum L= 1

SPLIT: Basis orbitals for state 2p

SPLIT: PAO cut-off radius determined from an
SPLIT: energy shift=  0.007350 Ry

   izeta = 1
                 lambda =    1.000000
                     rc =    4.972977
                 energy =   -0.513884
                kinetic =    3.441732
    potential(screened) =   -3.955616
       potential(ionic) =   -9.287901

   izeta = 2
                 rmatch =    3.054066
              splitnorm =    0.150000
                 energy =   -0.318226
                kinetic =    5.125348
    potential(screened) =   -5.443573
       potential(ionic) =  -11.380999

POLgen: Perturbative polarization orbital with L=  2

POLgen: Polarization orbital for state 2p

   izeta = 1
                     rc =    4.972977
                 energy =    1.607437
                kinetic =    3.268125
    potential(screened) =   -1.660688
       potential(ionic) =   -5.973652
atom: Total number of Sankey-type orbitals: 13

atm_pop: Valence configuration (for local Pseudopot. screening):
 2s( 2.00)                                                            
 2p( 3.00)                                                            
Vna: chval, zval:    5.00000   5.00000

Vna:  Cut-off radius for the neutral-atom potential:   4.972977
comcore: Pseudo-core radius Rcore=  1.554824

atom: _________________________________________________________________________

<basis_specs>
===============================================================================
C                    Z=   6    Mass=  12.010        Charge= 0.17977+309
Lmxo=1 Lmxkb= 3    BasisType=split      Semic=F
L=0  Nsemic=0  Cnfigmx=2
          n=1  nzeta=2  polorb=0
            splnorm:   0.15000    
               vcte:    0.0000    
               rinn:    0.0000    
                rcs:    0.0000      0.0000    
            lambdas:    1.0000      1.0000    
L=1  Nsemic=0  Cnfigmx=2
          n=1  nzeta=2  polorb=1
            splnorm:   0.15000    
               vcte:    0.0000    
               rinn:    0.0000    
                rcs:    0.0000      0.0000    
            lambdas:    1.0000      1.0000    
-------------------------------------------------------------------------------
L=0  Nkbl=1  erefs: 0.17977+309
L=1  Nkbl=1  erefs: 0.17977+309
L=2  Nkbl=1  erefs: 0.17977+309
L=3  Nkbl=1  erefs: 0.17977+309
===============================================================================
</basis_specs>

atom: Called for C                     (Z =   6)

read_vps: Pseudopotential generation method:
read_vps: ATM3      Troullier-Martins                       
Total valence charge:    4.00000

read_vps: Pseudopotential includes a core correction:
read_vps: Pseudo-core for xc-correction

xc_check: Exchange-correlation functional:
xc_check: GGA Perdew, Burke & Ernzerhof 1996
V l=0 = -2*Zval/r beyond r=  1.5227
V l=1 = -2*Zval/r beyond r=  1.5227
V l=2 = -2*Zval/r beyond r=  1.5227
V l=3 = -2*Zval/r beyond r=  1.5038
All V_l potentials equal beyond r=  1.5227
This should be close to max(r_c) in ps generation
All pots = -2*Zval/r beyond r=  1.5227

VLOCAL1: 99.0% of the norm of Vloc inside     18.722 Ry
VLOCAL1: 99.9% of the norm of Vloc inside     42.668 Ry
atom: Maximum radius for 4*pi*r*r*local-pseudopot. charge    1.83678
atom: Maximum radius for r*vlocal+2*Zval:    1.58088
GHOST: No ghost state for L =  0
GHOST: No ghost state for L =  1
GHOST: No ghost state for L =  2
GHOST: No ghost state for L =  3

KBgen: Kleinman-Bylander projectors: 
   l= 0   rc=  1.704034   el= -1.009801   Ekb=  5.335044   kbcos=  0.316824
   l= 1   rc=  1.704034   el= -0.388707   Ekb= -3.785862   kbcos= -0.366464
   l= 2   rc=  1.791422   el=  0.001971   Ekb= -0.970471   kbcos= -0.009212
   l= 3   rc=  1.859892   el=  0.003065   Ekb= -0.399525   kbcos= -0.001223

KBgen: Total number of  Kleinman-Bylander projectors:   16
atom: -------------------------------------------------------------------------

atom: SANKEY-TYPE ORBITALS:
atom: Selected multiple-zeta basis: split     

SPLIT: Orbitals with angular momentum L= 0

SPLIT: Basis orbitals for state 2s

SPLIT: PAO cut-off radius determined from an
SPLIT: energy shift=  0.007350 Ry

   izeta = 1
                 lambda =    1.000000
                     rc =    4.632753
                 energy =   -1.002270
                kinetic =    0.855760
    potential(screened) =   -1.858031
       potential(ionic) =   -5.417575

   izeta = 2
                 rmatch =    3.431921
              splitnorm =    0.150000
                 energy =   -0.867111
                kinetic =    1.300804
    potential(screened) =   -2.167915
       potential(ionic) =   -5.962684

SPLIT: Orbitals with angular momentum L= 1

SPLIT: Basis orbitals for state 2p

SPLIT: PAO cut-off radius determined from an
SPLIT: energy shift=  0.007350 Ry

   izeta = 1
                 lambda =    1.000000
                     rc =    5.658549
                 energy =   -0.381140
                kinetic =    2.399701
    potential(screened) =   -2.780841
       potential(ionic) =   -6.206085

   izeta = 2
                 rmatch =    3.653288
              splitnorm =    0.150000
                 energy =   -0.249149
                kinetic =    3.542762
    potential(screened) =   -3.791911
       potential(ionic) =   -7.581078

POLgen: Perturbative polarization orbital with L=  2

POLgen: Polarization orbital for state 2p

   izeta = 1
                     rc =    5.658549
                 energy =    1.109913
                kinetic =    2.304789
    potential(screened) =   -1.194876
       potential(ionic) =   -4.013592
atom: Total number of Sankey-type orbitals: 13

atm_pop: Valence configuration (for local Pseudopot. screening):
 2s( 2.00)                                                            
 2p( 2.00)                                                            
Vna: chval, zval:    4.00000   4.00000

Vna:  Cut-off radius for the neutral-atom potential:   5.658549
comcore: Pseudo-core radius Rcore=  1.791422

atom: _________________________________________________________________________

prinput: Basis input ----------------------------------------------------------

PAO.BasisType split     

%block ChemicalSpeciesLabel
    1    7 N                       # Species index, atomic number, species label
    2    6 C                       # Species index, atomic number, species label
%endblock ChemicalSpeciesLabel

%block PAO.Basis                 # Define Basis set
N                     2                    # Species label, number of l-shells
 n=2   0   2                         # n, l, Nzeta 
   4.071      2.905   
   1.000      1.000   
 n=2   1   2 P   1                   # n, l, Nzeta, Polarization, NzetaPol
   4.973      3.054   
   1.000      1.000   
C                     2                    # Species label, number of l-shells
 n=2   0   2                         # n, l, Nzeta 
   4.633      3.432   
   1.000      1.000   
 n=2   1   2 P   1                   # n, l, Nzeta, Polarization, NzetaPol
   5.659      3.653   
   1.000      1.000   
%endblock PAO.Basis

prinput: ----------------------------------------------------------------------

coor:   Atomic-coordinates input format  =     Fractional

siesta: Atomic coordinates (Bohr) and species
siesta:      4.63094  34.85847   0.00000  1        1
siesta:      6.95932  30.82560   0.00000  1        2
siesta:      6.95932  33.51406   0.00000  1        3
siesta:     -0.02582  18.72698   0.00000  1        4
siesta:     -0.02582  21.41544   0.00000  1        5
siesta:      2.30256  22.75985   0.00000  1        6
siesta:      2.30256  25.44831   0.00000  1        7
siesta:     -2.35420  22.75985   0.00000  1        8
siesta:     -2.35420  25.44831   0.00000  1        9
siesta:    -11.66772  22.75985   0.00000  1       10
siesta:      4.63094  26.79272   0.00000  1       11
siesta:      4.63094  29.48119   0.00000  1       12
siesta:     -0.02582  26.79272   0.00000  1       13
siesta:     -0.02582  29.48119   0.00000  1       14
siesta:      2.30256  30.82560   0.00000  1       15
siesta:      2.30256  33.51406   0.00000  1       16
siesta:     -2.35420  30.82560   0.00000  1       17
siesta:     -2.35420  33.51406   0.00000  1       18
siesta:     -0.02582  34.85847   0.00000  1       19
siesta:     -0.02582   2.59549   0.00000  2       20
siesta:     -0.02582   5.28395   0.00000  2       21
siesta:     -2.35420  38.89134   0.00000  2       22
siesta:     -2.35420  41.57980   0.00000  2       23
siesta:      2.30256  38.89134   0.00000  2       24
siesta:      2.30256  41.57980   0.00000  2       25
siesta:      4.63094  37.54693   0.00000  2       26
siesta:      9.28770  26.79272   0.00000  2       27
siesta:      9.28770  29.48119   0.00000  2       28
siesta:     -4.68258  34.85847   0.00000  2       29
siesta:     -4.68258  37.54693   0.00000  2       30
siesta:      2.30256   6.62836   0.00000  2       31
siesta:      2.30256   9.31683   0.00000  2       32
siesta:      4.63094  10.66124   0.00000  2       33
siesta:      4.63094  13.34970   0.00000  2       34
siesta:      6.95932  14.69411   0.00000  2       35
siesta:      6.95932  17.38257   0.00000  2       36
siesta:      9.28770  18.72698   0.00000  2       37
siesta:      9.28770  21.41544   0.00000  2       38
siesta:     11.61608  22.75985   0.00000  2       39
siesta:     11.61608  25.44831   0.00000  2       40
siesta:     -2.35420   6.62836   0.00000  2       41
siesta:     -2.35420   9.31683   0.00000  2       42
siesta:     -0.02582  10.66124   0.00000  2       43
siesta:     -0.02582  13.34970   0.00000  2       44
siesta:      2.30256  14.69411   0.00000  2       45
siesta:      2.30256  17.38257   0.00000  2       46
siesta:      4.63094  18.72698   0.00000  2       47
siesta:      4.63094  21.41544   0.00000  2       48
siesta:      6.95932  22.75985   0.00000  2       49
siesta:      6.95932  25.44831   0.00000  2       50
siesta:     -4.68258  10.66124   0.00000  2       51
siesta:     -4.68258  13.34970   0.00000  2       52
siesta:     -2.35420  14.69411   0.00000  2       53
siesta:     -2.35420  17.38257   0.00000  2       54
siesta:     -7.01096  14.69411   0.00000  2       55
siesta:     -7.01096  17.38257   0.00000  2       56
siesta:     -4.68258  18.72698   0.00000  2       57
siesta:     -4.68258  21.41544   0.00000  2       58
siesta:     -9.33934  18.72698   0.00000  2       59
siesta:     -9.33934  21.41544   0.00000  2       60
siesta:     -7.01096  22.75985   0.00000  2       61
siesta:     -7.01096  25.44831   0.00000  2       62
siesta:    -11.66772  25.44831   0.00000  2       63
siesta:     -9.33934  26.79272   0.00000  2       64
siesta:     -9.33934  29.48119   0.00000  2       65
siesta:     -4.68258  26.79272   0.00000  2       66
siesta:     -4.68258  29.48119   0.00000  2       67
siesta:     -7.01096  30.82560   0.00000  2       68
siesta:     -7.01096  33.51406   0.00000  2       69
siesta:     -0.02582  37.54693   0.00000  2       70
siesta:     -0.02582  42.92421   0.00000  2       71
siesta:     -0.02582  45.61267   0.00000  2       72

siesta: System type = slab      

initatomlists: Number of atoms, orbitals, and projectors:     72   936  1152

siesta: ******************** Simulation parameters ****************************
siesta:
siesta: The following are some of the parameters of the simulation.
siesta: A complete list of the parameters used, including default values,
siesta: can be found in file out.fdf
siesta:
redata: Non-Collinear-spin run           =     F
redata: SpinPolarized (Up/Down) run      =     F
redata: Number of spin components        =     1
redata: Long output                      =     F
redata: Number of Atomic Species         =        2
redata: Charge density info will appear in .RHO file
redata: Write Mulliken Pop.              =     NO
redata: Mesh Cutoff                      =   200.0000  Ry
redata: Net charge of the system         =     0.0000 |e|
redata: Max. number of SCF Iter          =      500
redata: SCF convergence failure will abort job
redata: Performing Pulay mixing using    =    10 iterations
redata: Mix DM in first SCF step ?       =     F
redata: Write Pulay info on disk?        =     F
redata: Discard 1st Pulay DM after  kick =     F
redata: New DM Mixing Weight             =     0.0500
redata: New DM Occupancy tolerance       = 0.000000000001
redata: No kicks to SCF
redata: DM Mixing Weight for Kicks       =     0.5000
redata: DM Tolerance for SCF             =     0.000100
redata: Require Energy convergence for SCF =     F
redata: DM Energy tolerance for SCF      =     0.000100 eV
redata: Require Harris convergence for SCF =     F
redata: DM Harris energy tolerance for SCF =     0.000100 eV
redata: Using Saved Data (generic)   =     F
redata: Use continuation files for DM    =     T
redata: Neglect nonoverlap interactions  =     F
redata: Method of Calculation            =     Diagonalization
redata: Divide and Conquer               =     T
redata: Electronic Temperature           =     0.0019  Ry
redata: Fix the spin of the system       =     F
redata: Dynamics option                  =     Verlet MD run
redata: Initial MD time step             =        1
redata:   Final MD time step             =        1
redata: Length of MD time step           =     1.0000  fs
redata: Initial Temperature of MD run    =     0.0000  K
redata: Perform a MD quench              =     F
redata: ***********************************************************************
Total number of electrons:   307.000000
Total ionic charge:   307.000000

* ProcessorY, Blocksize:    2  24

k-point displ. along   1 input, could be:     0.50    0.00
k-point displ. along   2 input, could be:     0.50    0.00
 Kpoints in:          231 . Kpoints trimmed:          231

siesta: k-grid: Number of k-points =   231
siesta: k-grid: Cutoff (effective) =     5.000 Ang
siesta: k-grid: Supercell and displacements
siesta: k-grid:   21   0   0      0.500
siesta: k-grid:    0  21   0      0.500
siesta: k-grid:    0   0   1      0.000
Naive supercell factors:     2    2    2

superc: Internal auxiliary supercell:     2 x     2 x     2  =       8
superc: Number of atoms, orbitals, and projectors:    576   7488   9216

* Maximum dynamic memory allocated =     4 MB

siesta:                 ==============================
                            Begin MD step =      1
                        ==============================

superc: Internal auxiliary supercell:     2 x     2 x     2  =       8
superc: Number of atoms, orbitals, and projectors:    576   7488   9216

outcell: Unit cell vectors (Ang):
       12.804619    7.392750    0.000000
        0.000000   14.785500    0.000000
        0.000000    0.000000   10.000000

outcell: Cell vector modules (Ang)   :   14.785500   14.785500   10.000000
outcell: Cell angles (23,13,12) (deg):     90.0000     90.0000     60.0000
outcell: Cell volume (Ang**3)        :   1893.2269
New_DM. Step:     1
Initializing Density Matrix...

InitMesh: MESH =   120 x   120 x    90 =     1296000
InitMesh: Mesh cutoff (required, used) =   200.000   223.865 Ry

* Maximum dynamic memory allocated =   185 MB

stepf: Fermi-Dirac step function

siesta: Program's energy decomposition (eV):
siesta: Ebs     =     -6247.645262
siesta: Eions   =     21457.201110
siesta: Ena     =      4924.499117
siesta: Ekin    =      7972.707975
siesta: Enl     =        86.283682
siesta: DEna    =        -0.000015
siesta: DUscf   =         0.000000
siesta: DUext   =         0.000000
siesta: Exc     =     -4645.873964
siesta: eta*DQ  =         0.000000
siesta: Emadel  =         0.000000
siesta: Emeta   =         0.000000
siesta: Emolmec =         0.000000
siesta: Ekinion =         0.000000
siesta: Eharris =    -12762.547651
siesta: Etot    =    -13119.584316
siesta: FreeEng =    -13119.584316

siesta: iscf   Eharris(eV)      E_KS(eV)   FreeEng(eV)   dDmax  Ef(eV)
siesta:    1   -12762.5477   -13119.5843   -13119.5843  5.4423 -6.8789
timer: Routine,Calls,Time,% = IterSCF        1    3430.149  99.70
elaps: Routine,Calls,Wall,% = IterSCF        1     429.581  99.70
siesta:    2   -18595.8962   -11951.1805   -11951.2501 18.8840 -6.0711
siesta:    3   -12691.2819   -12947.5038   -12947.5388  2.5950 -5.6142
siesta:    4   -12671.1289   -12783.9786   -12784.0162  1.5055 -4.4293
siesta:    5   -12609.3315   -12740.5434   -12740.5862  0.9300 -4.3728
siesta:    6   -12595.0244   -12669.3568   -12669.3987  0.9373 -3.9083
siesta:    7   -12592.2991   -12655.6494   -12655.6960  0.9268 -3.8805
siesta:    8   -12587.4602   -12641.6295   -12641.6928  0.7319 -3.9069
siesta:    9   -12586.9809   -12616.5557   -12616.6196  0.5773 -3.9156
siesta:   10   -12586.4661   -12596.3133   -12596.3640  0.4777 -3.8155
siesta:   11   -12586.3930   -12574.6289   -12574.6804  0.3758 -3.8288
siesta:   12   -12586.4600   -12567.2291   -12567.2825  0.5172 -3.8170
siesta:   13   -12586.1145   -12564.2308   -12564.2793  0.1774 -3.7265
siesta:   14   -12585.1956   -12566.4927   -12566.5499  0.2419 -3.8002
siesta:   15   -12584.8686   -12566.9913   -12567.0483  0.1803 -3.7545
siesta:   16   -12584.7481   -12570.3125   -12570.3754  0.1720 -3.7751
siesta:   17   -12584.6589   -12573.8702   -12573.9377  0.1361 -3.7960
siesta:   18   -12584.6397   -12579.0258   -12579.0874  0.0324 -3.8242
siesta:   19   -12584.6269   -12581.6077   -12581.6638  0.0258 -3.8227
siesta:   20   -12584.6153   -12583.5698   -12583.6277  0.0422 -3.8095
siesta:   21   -12584.6089   -12583.7529   -12583.8143  0.0366 -3.8001
siesta:   22   -12584.6081   -12584.2453   -12584.3066  0.0215 -3.7969
siesta:   23   -12584.6076   -12584.5776   -12584.6387  0.0132 -3.7954
siesta:   24   -12584.6067   -12584.8969   -12584.9574  0.0093 -3.7948
siesta:   25   -12584.6063   -12584.9362   -12584.9965  0.0068 -3.7954
siesta:   26   -12584.6059   -12584.9533   -12585.0137  0.0082 -3.7946
siesta:   27   -12584.6062   -12584.9775   -12585.0382  0.0032 -3.7966
siesta:   28   -12584.6061   -12584.9306   -12584.9909  0.0025 -3.7967
siesta:   29   -12584.6059   -12584.7370   -12584.7973  0.0019 -3.7967
siesta:   30   -12584.6060   -12584.6593   -12584.7198  0.0012 -3.7966
siesta:   31   -12584.6060   -12584.6332   -12584.6936  0.0006 -3.7966
siesta:   32   -12584.6060   -12584.6333   -12584.6936  0.0004 -3.7966
siesta:   33   -12584.6060   -12584.6293   -12584.6896  0.0004 -3.7965
siesta:   34   -12584.6060   -12584.6103   -12584.6706  0.0002 -3.7967
siesta:   35   -12584.6060   -12584.6042   -12584.6646  0.0002 -3.7967
siesta:   36   -12584.6060   -12584.6028   -12584.6631  0.0001 -3.7968
siesta:   37   -12584.6060   -12584.6024   -12584.6627  0.0001 -3.7968
siesta:   38   -12584.6060   -12584.6004   -12584.6608  0.0001 -3.7967
siesta:   39   -12584.6060   -12584.6017   -12584.6621  0.0001 -3.7968

siesta: E_KS(eV) =           -12584.6030

siesta: E_KS - E_eggbox =    -12584.6030

siesta: Atomic forces (eV/Ang):
----------------------------------------
   Tot    0.105367   -0.120312    0.000000
----------------------------------------
   Max  692.667697
   Res  176.094971    sqrt( Sum f_i^2 / 3N )
----------------------------------------
   Max  692.667697    constrained

Stress-tensor-Voigt (kbar):     -716.56    -3136.19       -0.09      -19.33        0.00        0.00
(Free)E + p*V (eV/cell)   -11067.1001
Target enthalpy (eV/cell)   -12584.6634

siesta: Stress tensor (static) (eV/Ang**3):
        -0.447238   -0.012068    0.000000
        -0.012067   -1.957432    0.000000
         0.000000    0.000000   -0.000055

siesta: Pressure (static):       1284.27857005  kBar

siesta: Stress tensor (total) (eV/Ang**3):
        -0.447238   -0.012068    0.000000
        -0.012067   -1.957432    0.000000
         0.000000    0.000000   -0.000055

siesta: Pressure (total):       1284.27857005  kBar

siesta: Temp_ion =       0.000 K

* Maximum dynamic memory allocated =   202 MB
Computing bands...

siesta: Program's energy decomposition (eV):
siesta: Ebs     =     -4991.281471
siesta: Eions   =     21457.201110
siesta: Ena     =      4924.499117
siesta: Ekin    =     11064.092925
siesta: Enl     =     -1597.688831
siesta: DEna    =      -807.832344
siesta: DUscf   =       112.750055
siesta: DUext   =         0.000000
siesta: Exc     =     -4823.222860
siesta: eta*DQ  =         0.000000
siesta: Emadel  =         0.000000
siesta: Emeta   =         0.000000
siesta: Emolmec =         0.000000
siesta: Ekinion =         0.000000
siesta: Eharris =    -12584.605983
siesta: Etot    =    -12584.603047
siesta: FreeEng =    -12584.663421

siesta: Final energy (eV):
siesta:  Band Struct. =   -4991.281471
siesta:       Kinetic =   11064.092925
siesta:       Hartree =   35884.464187
siesta:    Ext. field =       0.000000
siesta:   Exch.-corr. =   -4823.222860
siesta:  Ion-electron =  -82339.178025
siesta:       Ion-ion =   27629.240725
siesta:       Ekinion =       0.000000
siesta:         Total =  -12584.603047

siesta: Atomic forces (eV/Ang):
siesta:      1   30.403629   12.207127    0.000000
siesta:      2    4.155700    1.071449    0.000000
siesta:      3    0.497292   -3.135537    0.000000
siesta:      4   -4.714340  678.081355    0.000000
siesta:      5    0.342943   -0.872716    0.000000
siesta:      6    1.182556    0.661788    0.000000
siesta:      7    1.587041    0.203609    0.000000
siesta:      8   -0.847296   -1.024366    0.000000
siesta:      9   -0.105956   -0.250008    0.000000
siesta:     10    0.511882    5.000443    0.000000
siesta:     11    0.773910    0.285807    0.000000
siesta:     12    0.163171   -2.356669    0.000000
siesta:     13   -0.109844    6.045859    0.000000
siesta:     14   -1.508870 -692.667697    0.000000
siesta:     15   32.111436   11.682009    0.000000
siesta:     16    0.831827 -683.087591    0.000000
siesta:     17  -31.296745    8.653728    0.000000
siesta:     18  -15.138908 -672.405016    0.000000
siesta:     19    0.499563  119.859456    0.000000
siesta:     20   -3.946138  637.933888    0.000000
siesta:     21    2.488830 -113.204181    0.000000
siesta:     22    3.531301  127.108017    0.000000
siesta:     23  -14.800544 -549.365456    0.000000
siesta:     24   -1.203644  126.762454    0.000000
siesta:     25   15.186985 -549.178500    0.000000
siesta:     26   24.923214 -549.447339    0.000000
siesta:     27    0.536755    1.863839    0.000000
siesta:     28   -1.700915    2.711375    0.000000
siesta:     29  -27.347404    9.335865    0.000000
siesta:     30  -32.953862 -548.393368    0.000000
siesta:     31   21.578593  657.723280    0.000000
siesta:     32    1.121579 -114.080990    0.000000
siesta:     33   36.166555  551.269631    0.000000
siesta:     34   26.902714   -5.463720    0.000000
siesta:     35   -2.783651   -1.353132    0.000000
siesta:     36    2.735160   -0.104586    0.000000
siesta:     37   -1.114418   -0.730872    0.000000
siesta:     38    1.786783   -1.663042    0.000000
siesta:     39   -0.234158    6.917207    0.000000
siesta:     40   -0.234858   -6.297885    0.000000
siesta:     41   -9.325506  653.941196    0.000000
siesta:     42    0.768555 -118.166219    0.000000
siesta:     43    1.391664  546.047674    0.000000
siesta:     44   -0.077555 -127.713749    0.000000
siesta:     45   21.763222  559.324603    0.000000
siesta:     46   25.819913   -9.104206    0.000000
siesta:     47   -1.590841    3.925210    0.000000
siesta:     48   -0.235237   -1.194609    0.000000
siesta:     49   -1.092314    0.973493    0.000000
siesta:     50   -0.762509   -0.427750    0.000000
siesta:     51  -35.066543  548.907935    0.000000
siesta:     52  -26.252864   -5.982260    0.000000
siesta:     53  -20.698599  559.894217    0.000000
siesta:     54  -25.738468   -8.894516    0.000000
siesta:     55    2.824217   -2.020776    0.000000
siesta:     56   -2.559648    0.256455    0.000000
siesta:     57    1.627808    3.533474    0.000000
siesta:     58    0.128577   -0.754289    0.000000
siesta:     59    1.170515    0.416789    0.000000
siesta:     60   -1.701106   -0.614200    0.000000
siesta:     61    0.351888    0.336872    0.000000
siesta:     62    0.285068   -0.464414    0.000000
siesta:     63   -0.323604   -6.839672    0.000000
siesta:     64   -0.897492    2.403775    0.000000
siesta:     65    0.975691    0.065820    0.000000
siesta:     66    0.470781    0.789241    0.000000
siesta:     67    1.571801   -3.232162    0.000000
siesta:     68   -1.552872    0.432101    0.000000
siesta:     69    2.004811    1.568139    0.000000
siesta:     70   -5.087494 -538.325904    0.000000
siesta:     71   -0.661917  116.158589    0.000000
siesta:     72    2.597557 -645.656686    0.000000
siesta: ----------------------------------------
siesta:    Tot    0.105367   -0.120312    0.000000

siesta: Stress tensor (static) (eV/Ang**3):
siesta:    -0.447238   -0.012068    0.000000
siesta:    -0.012067   -1.957432    0.000000
siesta:     0.000000    0.000000   -0.000055

siesta: Cell volume =       1893.226884 Ang**3

siesta: Pressure (static):
siesta:                Solid            Molecule  Units
siesta:           0.00873017          0.13872732  Ry/Bohr**3
siesta:           0.80157497         12.73747081  eV/Ang**3
siesta:        1284.27857005      20407.89869473  kBar
(Free)E+ p_basis*V_orbitals  =      -12556.642111
(Free)Eharris+ p_basis*V_orbitals  =      -12556.646378

siesta: Electric dipole (a.u.)  =    0.000000    0.000000    0.000000
siesta: Electric dipole (Debye) =    0.000000    0.000000    0.000000

* Maximum dynamic memory allocated : Node    0 =   202 MB
* Maximum dynamic memory allocated : Node    1 =    71 MB
* Maximum dynamic memory allocated : Node    2 =    73 MB
* Maximum dynamic memory allocated : Node    3 =   191 MB
* Maximum dynamic memory allocated : Node    4 =   186 MB
* Maximum dynamic memory allocated : Node    5 =    70 MB
* Maximum dynamic memory allocated : Node    6 =    73 MB
* Maximum dynamic memory allocated : Node    7 =   173 MB

* Maximum memory occured during matrixMtoO                    

timer: CPU execution times:
timer:  Routine       Calls   Time/call    Tot.time        %
timer:  siesta            1  128921.231  128921.231   100.00
timer:  Setup             1       2.764       2.764     0.00
timer:  bands             3     243.431     730.294     0.57
timer:  writewave         1       0.022       0.022     0.00
timer:  KSV_init          1       0.000       0.000     0.00
timer:  IterMD            1  128182.897  128182.897    99.43
timer:  hsparse           1       0.279       0.279     0.00
timer:  overlap           1       7.139       7.139     0.01
timer:  IterSCF          39    3282.880  128032.319    99.31
timer:  kinefsm           2       3.676       7.353     0.01
timer:  nlefsm            2      17.547      35.095     0.03
timer:  DHSCF            40      74.803    2992.109     2.32
timer:  DHSCF1            1       0.747       0.747     0.00
timer:  DHSCF2            1      30.797      30.797     0.02
timer:  REORD           322       0.005       1.613     0.00
timer:  POISON           41       0.872      35.735     0.03
timer:  DHSCF3           40      73.289    2931.548     2.27
timer:  rhoofd           40      15.429     617.141     0.48
timer:  cellXC           40       3.186     127.457     0.10
timer:  vmat             40      34.174    1366.957     1.06
timer:  MolMec            2       0.000       0.000     0.00
timer:  diagon           39    3207.346  125086.513    97.03
timer:  c-eigval       9130       6.030   55056.489    42.71
timer:  c-buildHS      9130       0.047     430.846     0.33
timer:  cdiag         18139       6.144  111445.323    86.44
timer:  cdiag1        18139       0.384    6965.548     5.40
timer:  cdiag2        18139       1.767   32055.463    24.86
timer:  cdiag3        18139       3.734   67736.806    52.54
timer:  cdiag4        18139       0.152    2765.071     2.14
timer:  c-eigvec       9009       6.346   57172.012    44.35
timer:  c-buildD       9009       1.503   13542.352    10.50
timer:  DHSCF4            1      28.217      28.217     0.02
timer:  dfscf             1      26.346      26.346     0.02
timer:  overfsm           1       0.382       0.382     0.00
timer:  optical           1       4.603       4.603     0.00
  

elaps: ELAPSED times:
elaps:  Routine       Calls   Time/call    Tot.time        %
elaps:  siesta            1   16144.991   16144.991   100.00
elaps:  Setup             1       0.346       0.346     0.00
elaps:  bands             3      30.503      91.510     0.57
elaps:  writewave         1       0.002       0.002     0.00
elaps:  KSV_init          1       0.000       0.000     0.00
elaps:  IterMD            1   16052.527   16052.527    99.43
elaps:  hsparse           1       0.037       0.037     0.00
elaps:  overlap           1       0.895       0.895     0.01
elaps:  IterSCF          39     411.120   16033.674    99.31
elaps:  kinefsm           2       0.461       0.923     0.01
elaps:  nlefsm            2       2.158       4.316     0.03
elaps:  DHSCF            40       9.463     378.507     2.34
elaps:  DHSCF1            1       0.096       0.096     0.00
elaps:  DHSCF2            1       3.854       3.854     0.02
elaps:  REORD           322       0.001       0.219     0.00
elaps:  POISON           41       0.110       4.526     0.03
elaps:  DHSCF3           40       9.179     367.152     2.27
elaps:  rhoofd           40       4.318     172.707     1.07
elaps:  cellXC           40       0.399      15.948     0.10
elaps:  vmat             40       4.280     171.199     1.06
elaps:  MolMec            2       0.000       0.000     0.00
elaps:  diagon           39     401.663   15664.868    97.03
elaps:  c-eigval       9130       0.755    6894.751    42.71
elaps:  c-buildHS      9130       0.007      62.993     0.39
elaps:  cdiag         18139       0.767   13912.789    86.17
elaps:  cdiag1        18139       0.048     867.664     5.37
elaps:  cdiag2        18139       0.221    4015.325    24.87
elaps:  cdiag3        18139       0.468    8493.479    52.61
elaps:  cdiag4        18139       0.019     344.139     2.13
elaps:  c-eigvec       9009       0.792    7132.092    44.18
elaps:  c-buildD       9009       0.191    1723.187    10.67
elaps:  DHSCF4            1       7.306       7.306     0.05
elaps:  dfscf             1       6.896       6.896     0.04
elaps:  overfsm           1       0.049       0.049     0.00
elaps:  optical           1       0.001       0.001     0.00
  
>> End of run:   1-MAY-2016   5:52:28
