Siesta Version:                                        siesta-3.2-pl-3
Architecture  : x86_64-unknown-linux-gnu--unknown
Compiler flags: mpiifort -g -O2 -fPIC -xSSE4.1 -fp-model source -shared-intel 
PARALLEL version

* Running on    8 nodes in parallel
>> Start of run:  28-APR-2016   5:50:44

                           ***********************       
                           *  WELCOME TO SIESTA  *       
                           ***********************       

reinit: Reading from standard input
************************** Dump of input data file ****************************
#(1) General system descriptors
SystemName            GRP_doping    # Descriptive name of the system
SystemLabel           GRP_doping    # Short name for naming files
%include STRUCT.fdf
%include KPT.fdf
%include BASIS.fdf
#%include TS.fdf # for transiesta calculation
#(4) DFT, Grid, SCF
XC.functional         GGA           # LDA or GGA (default = LDA)
XC.authors            PBE           # CA (Ceperley-Aldr) = PZ
                                    #    (Perdew-Zunger) - LDA - Default
                                    # PW92 (Perdew-Wang-92) - LDA
                                    # PBE (Perdew-Burke-Ernzerhof) - GGA
MeshCutoff            200.000000    Ry      # Default: 50.0 Ry ~ 0.444 Bohr
                                    #         100.0 Ry ~ 0.314 Bohr
MaxSCFIterations      500           # Default: 50
DM.MixingWeight       0.05          # Default: 0.25
DM.NumberPulay        10            # Default: 0
DM.PulayOnFile        F             # SystemLabel.P1, SystemLabel.P2
DM.Tolerance          1.d-4         # Default: 1.d-4
DM.UseSaveDM          .true.        # because of the bug
SCFMustConverge       .true.
NeglNonOverlapInt     F             # Default: F
#(5) Eigenvalue problem: order-N or diagonalization
SolutionMethod        Diagon        # or Transiesta
ElectronicTemperature 300.0 K       # Default: 300.0 K
#(6) Molecular dynamics and relaxations
#MD.TypeOfRun          CG            # Type of dynamics:
#MD.VariableCell       F
#MD.NumCGsteps         0           # 0 for single-point / 100 for gopt
#MD.MaxCGDispl         0.2 Bohr      # Default: 0.2 Bohr
#MD.MaxForceTol        0.02 eV/Ang   # Default: 0.04 eV/Ang
#MD.MaxStressTol       1.0 GPa       # Default: 1.0 GPa
# Geometry Constraints
#%block GeometryConstraints
#	position from 1 to 44
#%endblock GeometryConstraints
BandLinesScale   pi/a
%block BandLines
 1   0.00000000  0.00000000  0.00000000
50   0.00000000  0.07809418  0.00000000
50   0.04509075  0.07809242  0.00000000
20   0.00000000  0.00000000  0.00000000
%endblock BandLines
************************** End of input data file *****************************

reinit: -----------------------------------------------------------------------
reinit: System Name: GRP_doping
reinit: -----------------------------------------------------------------------
reinit: System Label: GRP_doping                                                  
reinit: -----------------------------------------------------------------------

initatom: Reading input for the pseudopotentials and atomic orbitals ----------
 Species number:            1  Label: B Atomic number:           5
 Species number:            2  Label: C Atomic number:           6
Ground state valence configuration:   2s02  2p01
Reading pseudopotential information in formatted form from B.psf

Valence configuration for pseudopotential generation:
2s( 2.00) rc: 1.74
2p( 1.00) rc: 1.74
3d( 0.00) rc: 1.74
4f( 0.00) rc: 1.74
Ground state valence configuration:   2s02  2p02
Reading pseudopotential information in formatted form from C.psf

Valence configuration for pseudopotential generation:
2s( 2.00) rc: 1.54
2p( 2.00) rc: 1.54
3d( 0.00) rc: 1.54
4f( 0.00) rc: 1.54
For B, standard SIESTA heuristics set lmxkb to 3
 (one more than the basis l, including polarization orbitals).
Use PS.lmax or PS.KBprojectors blocks to override.
For C, standard SIESTA heuristics set lmxkb to 3
 (one more than the basis l, including polarization orbitals).
Use PS.lmax or PS.KBprojectors blocks to override.

<basis_specs>
===============================================================================
B                    Z=   5    Mass=  10.810        Charge= 0.17977+309
Lmxo=1 Lmxkb= 3    BasisType=split      Semic=F
L=0  Nsemic=0  Cnfigmx=2
          n=1  nzeta=2  polorb=0
            splnorm:   0.15000    
               vcte:    0.0000    
               rinn:    0.0000    
                rcs:    0.0000      0.0000    
            lambdas:    1.0000      1.0000    
L=1  Nsemic=0  Cnfigmx=2
          n=1  nzeta=2  polorb=1
            splnorm:   0.15000    
               vcte:    0.0000    
               rinn:    0.0000    
                rcs:    0.0000      0.0000    
            lambdas:    1.0000      1.0000    
-------------------------------------------------------------------------------
L=0  Nkbl=1  erefs: 0.17977+309
L=1  Nkbl=1  erefs: 0.17977+309
L=2  Nkbl=1  erefs: 0.17977+309
L=3  Nkbl=1  erefs: 0.17977+309
===============================================================================
</basis_specs>

atom: Called for B                     (Z =   5)

read_vps: Pseudopotential generation method:
read_vps: ATM3      Troullier-Martins                       
Total valence charge:    3.00000

read_vps: Pseudopotential includes a core correction:
read_vps: Pseudo-core for xc-correction

xc_check: Exchange-correlation functional:
xc_check: GGA Perdew, Burke & Ernzerhof 1996
V l=0 = -2*Zval/r beyond r=  1.7165
V l=1 = -2*Zval/r beyond r=  1.7165
V l=2 = -2*Zval/r beyond r=  1.7165
V l=3 = -2*Zval/r beyond r=  1.6951
All V_l potentials equal beyond r=  1.7165
This should be close to max(r_c) in ps generation
All pots = -2*Zval/r beyond r=  1.7165

VLOCAL1: 99.0% of the norm of Vloc inside     14.733 Ry
VLOCAL1: 99.9% of the norm of Vloc inside     33.577 Ry
atom: Maximum radius for 4*pi*r*r*local-pseudopot. charge    2.04484
atom: Maximum radius for r*vlocal+2*Zval:    1.75994
GHOST: No ghost state for L =  0
GHOST: No ghost state for L =  1
GHOST: No ghost state for L =  2
GHOST: No ghost state for L =  3

KBgen: Kleinman-Bylander projectors: 
   l= 0   rc=  1.897051   el= -0.693730   Ekb=  4.595746   kbcos=  0.286105
   l= 1   rc=  1.920920   el= -0.265236   Ekb= -2.350715   kbcos= -0.315747
   l= 2   rc=  2.044840   el=  0.002055   Ekb= -0.690767   kbcos= -0.013822
   l= 3   rc=  2.149707   el=  0.003188   Ekb= -0.315358   kbcos= -0.002055

KBgen: Total number of  Kleinman-Bylander projectors:   16
atom: -------------------------------------------------------------------------

atom: SANKEY-TYPE ORBITALS:
atom: Selected multiple-zeta basis: split     

SPLIT: Orbitals with angular momentum L= 0

SPLIT: Basis orbitals for state 2s

SPLIT: PAO cut-off radius determined from an
SPLIT: energy shift=  0.007350 Ry

   izeta = 1
                 lambda =    1.000000
                     rc =    5.422032
                 energy =   -0.686029
                kinetic =    0.576707
    potential(screened) =   -1.262736
       potential(ionic) =   -3.271094

   izeta = 2
                 rmatch =    4.222573
              splitnorm =    0.150000
                 energy =   -0.602132
                kinetic =    0.858975
    potential(screened) =   -1.461107
       potential(ionic) =   -3.582536

SPLIT: Orbitals with angular momentum L= 1

SPLIT: Basis orbitals for state 2p

SPLIT: PAO cut-off radius determined from an
SPLIT: energy shift=  0.007350 Ry

   izeta = 1
                 lambda =    1.000000
                     rc =    6.790259
                 energy =   -0.258578
                kinetic =    1.481412
    potential(screened) =   -1.739989
       potential(ionic) =   -3.657461

   izeta = 2
                 rmatch =    4.608740
              splitnorm =    0.150000
                 energy =   -0.173757
                kinetic =    2.186690
    potential(screened) =   -2.360447
       potential(ionic) =   -4.464260

POLgen: Perturbative polarization orbital with L=  2

POLgen: Polarization orbital for state 2p

   izeta = 1
                     rc =    6.790259
                 energy =    0.684082
                kinetic =    1.471481
    potential(screened) =   -0.787399
       potential(ionic) =   -2.406985
atom: Total number of Sankey-type orbitals: 13

atm_pop: Valence configuration (for local Pseudopot. screening):
 2s( 2.00)                                                            
 2p( 1.00)                                                            
Vna: chval, zval:    3.00000   3.00000

Vna:  Cut-off radius for the neutral-atom potential:   6.790259
comcore: Pseudo-core radius Rcore=  2.122997

atom: _________________________________________________________________________

<basis_specs>
===============================================================================
C                    Z=   6    Mass=  12.010        Charge= 0.17977+309
Lmxo=1 Lmxkb= 3    BasisType=split      Semic=F
L=0  Nsemic=0  Cnfigmx=2
          n=1  nzeta=2  polorb=0
            splnorm:   0.15000    
               vcte:    0.0000    
               rinn:    0.0000    
                rcs:    0.0000      0.0000    
            lambdas:    1.0000      1.0000    
L=1  Nsemic=0  Cnfigmx=2
          n=1  nzeta=2  polorb=1
            splnorm:   0.15000    
               vcte:    0.0000    
               rinn:    0.0000    
                rcs:    0.0000      0.0000    
            lambdas:    1.0000      1.0000    
-------------------------------------------------------------------------------
L=0  Nkbl=1  erefs: 0.17977+309
L=1  Nkbl=1  erefs: 0.17977+309
L=2  Nkbl=1  erefs: 0.17977+309
L=3  Nkbl=1  erefs: 0.17977+309
===============================================================================
</basis_specs>

atom: Called for C                     (Z =   6)

read_vps: Pseudopotential generation method:
read_vps: ATM3      Troullier-Martins                       
Total valence charge:    4.00000

read_vps: Pseudopotential includes a core correction:
read_vps: Pseudo-core for xc-correction

xc_check: Exchange-correlation functional:
xc_check: GGA Perdew, Burke & Ernzerhof 1996
V l=0 = -2*Zval/r beyond r=  1.5227
V l=1 = -2*Zval/r beyond r=  1.5227
V l=2 = -2*Zval/r beyond r=  1.5227
V l=3 = -2*Zval/r beyond r=  1.5038
All V_l potentials equal beyond r=  1.5227
This should be close to max(r_c) in ps generation
All pots = -2*Zval/r beyond r=  1.5227

VLOCAL1: 99.0% of the norm of Vloc inside     18.722 Ry
VLOCAL1: 99.9% of the norm of Vloc inside     42.668 Ry
atom: Maximum radius for 4*pi*r*r*local-pseudopot. charge    1.83678
atom: Maximum radius for r*vlocal+2*Zval:    1.58088
GHOST: No ghost state for L =  0
GHOST: No ghost state for L =  1
GHOST: No ghost state for L =  2
GHOST: No ghost state for L =  3

KBgen: Kleinman-Bylander projectors: 
   l= 0   rc=  1.704034   el= -1.009801   Ekb=  5.335044   kbcos=  0.316824
   l= 1   rc=  1.704034   el= -0.388707   Ekb= -3.785862   kbcos= -0.366464
   l= 2   rc=  1.791422   el=  0.001971   Ekb= -0.970471   kbcos= -0.009212
   l= 3   rc=  1.859892   el=  0.003065   Ekb= -0.399525   kbcos= -0.001223

KBgen: Total number of  Kleinman-Bylander projectors:   16
atom: -------------------------------------------------------------------------

atom: SANKEY-TYPE ORBITALS:
atom: Selected multiple-zeta basis: split     

SPLIT: Orbitals with angular momentum L= 0

SPLIT: Basis orbitals for state 2s

SPLIT: PAO cut-off radius determined from an
SPLIT: energy shift=  0.007350 Ry

   izeta = 1
                 lambda =    1.000000
                     rc =    4.632753
                 energy =   -1.002270
                kinetic =    0.855760
    potential(screened) =   -1.858031
       potential(ionic) =   -5.417575

   izeta = 2
                 rmatch =    3.431921
              splitnorm =    0.150000
                 energy =   -0.867111
                kinetic =    1.300804
    potential(screened) =   -2.167915
       potential(ionic) =   -5.962684

SPLIT: Orbitals with angular momentum L= 1

SPLIT: Basis orbitals for state 2p

SPLIT: PAO cut-off radius determined from an
SPLIT: energy shift=  0.007350 Ry

   izeta = 1
                 lambda =    1.000000
                     rc =    5.658549
                 energy =   -0.381140
                kinetic =    2.399701
    potential(screened) =   -2.780841
       potential(ionic) =   -6.206085

   izeta = 2
                 rmatch =    3.653288
              splitnorm =    0.150000
                 energy =   -0.249149
                kinetic =    3.542762
    potential(screened) =   -3.791911
       potential(ionic) =   -7.581078

POLgen: Perturbative polarization orbital with L=  2

POLgen: Polarization orbital for state 2p

   izeta = 1
                     rc =    5.658549
                 energy =    1.109913
                kinetic =    2.304789
    potential(screened) =   -1.194876
       potential(ionic) =   -4.013592
atom: Total number of Sankey-type orbitals: 13

atm_pop: Valence configuration (for local Pseudopot. screening):
 2s( 2.00)                                                            
 2p( 2.00)                                                            
Vna: chval, zval:    4.00000   4.00000

Vna:  Cut-off radius for the neutral-atom potential:   5.658549
comcore: Pseudo-core radius Rcore=  1.791422

atom: _________________________________________________________________________

prinput: Basis input ----------------------------------------------------------

PAO.BasisType split     

%block ChemicalSpeciesLabel
    1    5 B                       # Species index, atomic number, species label
    2    6 C                       # Species index, atomic number, species label
%endblock ChemicalSpeciesLabel

%block PAO.Basis                 # Define Basis set
B                     2                    # Species label, number of l-shells
 n=2   0   2                         # n, l, Nzeta 
   5.422      4.223   
   1.000      1.000   
 n=2   1   2 P   1                   # n, l, Nzeta, Polarization, NzetaPol
   6.790      4.609   
   1.000      1.000   
C                     2                    # Species label, number of l-shells
 n=2   0   2                         # n, l, Nzeta 
   4.633      3.432   
   1.000      1.000   
 n=2   1   2 P   1                   # n, l, Nzeta, Polarization, NzetaPol
   5.659      3.653   
   1.000      1.000   
%endblock PAO.Basis

prinput: ----------------------------------------------------------------------

coor:   Atomic-coordinates input format  =     Fractional

siesta: Atomic coordinates (Bohr) and species
siesta:      4.63094  34.85847   0.00000  1        1
siesta:      6.95932  30.82560   0.00000  1        2
siesta:      6.95932  33.51406   0.00000  1        3
siesta:     -2.35420  17.38257   0.00000  1        4
siesta:     -0.02582  18.72698   0.00000  1        5
siesta:     -0.02582  21.41544   0.00000  1        6
siesta:      2.30256  22.75985   0.00000  1        7
siesta:      2.30256  25.44831   0.00000  1        8
siesta:     -4.68258  18.72698   0.00000  1        9
siesta:     -4.68258  21.41544   0.00000  1       10
siesta:     -2.35420  22.75985   0.00000  1       11
siesta:     -2.35420  25.44831   0.00000  1       12
siesta:    -11.66772  22.75985   0.00000  1       13
siesta:    -11.66772  25.44831   0.00000  1       14
siesta:     -9.33934  26.79272   0.00000  1       15
siesta:     -9.33934  29.48119   0.00000  1       16
siesta:      4.63094  29.48119   0.00000  1       17
siesta:     -0.02582  26.79272   0.00000  1       18
siesta:      2.30256  30.82560   0.00000  1       19
siesta:      2.30256  33.51406   0.00000  1       20
siesta:     -7.01096  30.82560   0.00000  1       21
siesta:     -0.02582   2.59549   0.00000  2       22
siesta:     -0.02582   5.28395   0.00000  2       23
siesta:     -2.35420  38.89134   0.00000  2       24
siesta:     -2.35420  41.57980   0.00000  2       25
siesta:      2.30256  38.89134   0.00000  2       26
siesta:      2.30256  41.57980   0.00000  2       27
siesta:      4.63094  37.54693   0.00000  2       28
siesta:      9.28770  26.79272   0.00000  2       29
siesta:      9.28770  29.48119   0.00000  2       30
siesta:     -4.68258  34.85847   0.00000  2       31
siesta:     -4.68258  37.54693   0.00000  2       32
siesta:      2.30256   6.62836   0.00000  2       33
siesta:      2.30256   9.31683   0.00000  2       34
siesta:      4.63094  10.66124   0.00000  2       35
siesta:      4.63094  13.34970   0.00000  2       36
siesta:      6.95932  14.69411   0.00000  2       37
siesta:      6.95932  17.38257   0.00000  2       38
siesta:      9.28770  18.72698   0.00000  2       39
siesta:      9.28770  21.41544   0.00000  2       40
siesta:     11.61608  22.75985   0.00000  2       41
siesta:     11.61608  25.44831   0.00000  2       42
siesta:     -2.35420   6.62836   0.00000  2       43
siesta:     -2.35420   9.31683   0.00000  2       44
siesta:     -0.02582  10.66124   0.00000  2       45
siesta:     -0.02582  13.34970   0.00000  2       46
siesta:      2.30256  14.69411   0.00000  2       47
siesta:      2.30256  17.38257   0.00000  2       48
siesta:      4.63094  18.72698   0.00000  2       49
siesta:      4.63094  21.41544   0.00000  2       50
siesta:      6.95932  22.75985   0.00000  2       51
siesta:      6.95932  25.44831   0.00000  2       52
siesta:     -4.68258  10.66124   0.00000  2       53
siesta:     -4.68258  13.34970   0.00000  2       54
siesta:     -2.35420  14.69411   0.00000  2       55
siesta:     -7.01096  14.69411   0.00000  2       56
siesta:     -7.01096  17.38257   0.00000  2       57
siesta:     -9.33934  18.72698   0.00000  2       58
siesta:     -9.33934  21.41544   0.00000  2       59
siesta:     -7.01096  22.75985   0.00000  2       60
siesta:     -7.01096  25.44831   0.00000  2       61
siesta:      4.63094  26.79272   0.00000  2       62
siesta:     -0.02582  29.48119   0.00000  2       63
siesta:     -4.68258  26.79272   0.00000  2       64
siesta:     -4.68258  29.48119   0.00000  2       65
siesta:     -2.35420  30.82560   0.00000  2       66
siesta:     -2.35420  33.51406   0.00000  2       67
siesta:     -7.01096  33.51406   0.00000  2       68
siesta:     -0.02582  34.85847   0.00000  2       69
siesta:     -0.02582  37.54693   0.00000  2       70
siesta:     -0.02582  42.92421   0.00000  2       71
siesta:     -0.02582  45.61267   0.00000  2       72

siesta: System type = slab      

initatomlists: Number of atoms, orbitals, and projectors:     72   936  1152

siesta: ******************** Simulation parameters ****************************
siesta:
siesta: The following are some of the parameters of the simulation.
siesta: A complete list of the parameters used, including default values,
siesta: can be found in file out.fdf
siesta:
redata: Non-Collinear-spin run           =     F
redata: SpinPolarized (Up/Down) run      =     F
redata: Number of spin components        =     1
redata: Long output                      =     F
redata: Number of Atomic Species         =        2
redata: Charge density info will appear in .RHO file
redata: Write Mulliken Pop.              =     NO
redata: Mesh Cutoff                      =   200.0000  Ry
redata: Net charge of the system         =     0.0000 |e|
redata: Max. number of SCF Iter          =      500
redata: SCF convergence failure will abort job
redata: Performing Pulay mixing using    =    10 iterations
redata: Mix DM in first SCF step ?       =     F
redata: Write Pulay info on disk?        =     F
redata: Discard 1st Pulay DM after  kick =     F
redata: New DM Mixing Weight             =     0.0500
redata: New DM Occupancy tolerance       = 0.000000000001
redata: No kicks to SCF
redata: DM Mixing Weight for Kicks       =     0.5000
redata: DM Tolerance for SCF             =     0.000100
redata: Require Energy convergence for SCF =     F
redata: DM Energy tolerance for SCF      =     0.000100 eV
redata: Require Harris convergence for SCF =     F
redata: DM Harris energy tolerance for SCF =     0.000100 eV
redata: Using Saved Data (generic)   =     F
redata: Use continuation files for DM    =     T
redata: Neglect nonoverlap interactions  =     F
redata: Method of Calculation            =     Diagonalization
redata: Divide and Conquer               =     T
redata: Electronic Temperature           =     0.0019  Ry
redata: Fix the spin of the system       =     F
redata: Dynamics option                  =     Verlet MD run
redata: Initial MD time step             =        1
redata:   Final MD time step             =        1
redata: Length of MD time step           =     1.0000  fs
redata: Initial Temperature of MD run    =     0.0000  K
redata: Perform a MD quench              =     F
redata: ***********************************************************************
Total number of electrons:   267.000000
Total ionic charge:   267.000000

* ProcessorY, Blocksize:    2  24

k-point displ. along   1 input, could be:     0.50    0.00
k-point displ. along   2 input, could be:     0.50    0.00
 Kpoints in:          231 . Kpoints trimmed:          231

siesta: k-grid: Number of k-points =   231
siesta: k-grid: Cutoff (effective) =     5.000 Ang
siesta: k-grid: Supercell and displacements
siesta: k-grid:   21   0   0      0.500
siesta: k-grid:    0  21   0      0.500
siesta: k-grid:    0   0   1      0.000
Naive supercell factors:     2    2    2

superc: Internal auxiliary supercell:     2 x     2 x     2  =       8
superc: Number of atoms, orbitals, and projectors:    576   7488   9216

* Maximum dynamic memory allocated =     4 MB

siesta:                 ==============================
                            Begin MD step =      1
                        ==============================

superc: Internal auxiliary supercell:     2 x     2 x     2  =       8
superc: Number of atoms, orbitals, and projectors:    576   7488   9216

outcell: Unit cell vectors (Ang):
       12.804619    7.392750    0.000000
        0.000000   14.785500    0.000000
        0.000000    0.000000   10.000000

outcell: Cell vector modules (Ang)   :   14.785500   14.785500   10.000000
outcell: Cell angles (23,13,12) (deg):     90.0000     90.0000     60.0000
outcell: Cell volume (Ang**3)        :   1893.2269
New_DM. Step:     1
Initializing Density Matrix...

InitMesh: MESH =   120 x   120 x    90 =     1296000
InitMesh: Mesh cutoff (required, used) =   200.000   223.865 Ry

* Maximum dynamic memory allocated =   225 MB

stepf: Fermi-Dirac step function

siesta: Program's energy decomposition (eV):
siesta: Ebs     =     -5545.288940
siesta: Eions   =     15713.820136
siesta: Ena     =      4220.840356
siesta: Ekin    =      5270.679987
siesta: Enl     =       810.458148
siesta: DEna    =        -0.000008
siesta: DUscf   =         0.000000
siesta: DUext   =         0.000000
siesta: Exc     =     -4209.840012
siesta: eta*DQ  =         0.000000
siesta: Emadel  =         0.000000
siesta: Emeta   =         0.000000
siesta: Emolmec =         0.000000
siesta: Ekinion =         0.000000
siesta: Eharris =     -9333.818566
siesta: Etot    =     -9621.681666
siesta: FreeEng =     -9621.681666

siesta: iscf   Eharris(eV)      E_KS(eV)   FreeEng(eV)   dDmax  Ef(eV)
siesta:    1    -9333.8186    -9621.6817    -9621.6817  6.7560 -8.4166
timer: Routine,Calls,Time,% = IterSCF        1    4492.733  99.72
elaps: Routine,Calls,Wall,% = IterSCF        1     562.349  99.72
siesta:    2   -13567.8039    -8652.5662    -8652.6046 20.9953 -2.3543
siesta:    3    -9259.8692    -9490.0947    -9490.1195  4.0154 -7.1465
siesta:    4    -9235.0771    -9332.1884    -9332.2282  1.2237 -5.6800
siesta:    5    -9202.2223    -9271.4497    -9271.4995  0.9234 -5.5242
siesta:    6    -9186.4162    -9222.4661    -9222.5184  0.7442 -5.3174
siesta:    7    -9181.0147    -9212.5978    -9212.6468  0.7741 -5.2597
siesta:    8    -9178.4956    -9199.0449    -9199.1177  0.6933 -5.2121
siesta:    9    -9176.4816    -9194.1126    -9194.1888  0.6786 -5.2610
siesta:   10    -9175.7969    -9183.8934    -9183.9808  0.5547 -5.2108
siesta:   11    -9177.1720    -9164.1828    -9164.2669  0.3406 -5.1231
siesta:   12    -9176.8271    -9157.4842    -9157.5713  0.2596 -5.0398
siesta:   13    -9176.0701    -9150.2890    -9150.3572  0.1500 -5.0441
siesta:   14    -9175.0977    -9152.1980    -9152.2898  0.1812 -5.0598
siesta:   15    -9174.8845    -9152.4891    -9152.5753  0.1472 -5.0777
siesta:   16    -9174.5253    -9159.2672    -9159.3606  0.0880 -5.1287
siesta:   17    -9174.3434    -9164.9489    -9165.0401  0.0934 -5.1590
siesta:   18    -9174.3132    -9167.1899    -9167.2813  0.0882 -5.1640
siesta:   19    -9174.2671    -9172.8413    -9172.9314  0.0633 -5.1739
siesta:   20    -9174.2664    -9172.6217    -9172.7184  0.0575 -5.1657
siesta:   21    -9174.2516    -9176.0750    -9176.1699  0.0447 -5.1681
siesta:   22    -9174.2524    -9176.5686    -9176.6655  0.0260 -5.1564
siesta:   23    -9174.2513    -9175.5683    -9175.6640  0.0144 -5.1491
siesta:   24    -9174.2445    -9175.1475    -9175.2417  0.0093 -5.1431
siesta:   25    -9174.2429    -9174.9967    -9175.0920  0.0103 -5.1430
siesta:   26    -9174.2425    -9175.0393    -9175.1345  0.0083 -5.1445
siesta:   27    -9174.2426    -9174.8447    -9174.9398  0.0058 -5.1453
siesta:   28    -9174.2426    -9174.5561    -9174.6512  0.0041 -5.1455
siesta:   29    -9174.2425    -9174.3714    -9174.4665  0.0026 -5.1460
siesta:   30    -9174.2424    -9174.3410    -9174.4360  0.0015 -5.1467
siesta:   31    -9174.2424    -9174.2894    -9174.3844  0.0011 -5.1469
siesta:   32    -9174.2424    -9174.2775    -9174.3724  0.0007 -5.1472
siesta:   33    -9174.2423    -9174.2573    -9174.3522  0.0005 -5.1470
siesta:   34    -9174.2423    -9174.2313    -9174.3263  0.0004 -5.1470
siesta:   35    -9174.2423    -9174.2392    -9174.3341  0.0003 -5.1470
siesta:   36    -9174.2423    -9174.2415    -9174.3364  0.0002 -5.1470
siesta:   37    -9174.2423    -9174.2411    -9174.3360  0.0002 -5.1470
siesta:   38    -9174.2423    -9174.2356    -9174.3305  0.0001 -5.1470
siesta:   39    -9174.2423    -9174.2352    -9174.3301  0.0001 -5.1470
siesta:   40    -9174.2423    -9174.2408    -9174.3357  0.0000 -5.1470

siesta: E_KS(eV) =            -9174.2425

siesta: E_KS - E_eggbox =     -9174.2425

siesta: Atomic forces (eV/Ang):
----------------------------------------
   Tot   -0.168580   -0.010891    0.000000
----------------------------------------
   Max  557.020644
   Res  153.004630    sqrt( Sum f_i^2 / 3N )
----------------------------------------
   Max  557.020644    constrained

Stress-tensor-Voigt (kbar):     -834.60    -2795.36       -0.70       -0.41        0.00        0.00
(Free)E + p*V (eV/cell)    -7744.2876
Target enthalpy (eV/cell)    -9174.3375

siesta: Stress tensor (static) (eV/Ang**3):
        -0.520909   -0.000255    0.000000
        -0.000255   -1.744708    0.000000
         0.000000    0.000000   -0.000434

siesta: Pressure (static):       1210.21803275  kBar

siesta: Stress tensor (total) (eV/Ang**3):
        -0.520909   -0.000255    0.000000
        -0.000255   -1.744708    0.000000
         0.000000    0.000000   -0.000434

siesta: Pressure (total):       1210.21803275  kBar

siesta: Temp_ion =       0.000 K

* Maximum dynamic memory allocated =   242 MB
Computing bands...

siesta: Program's energy decomposition (eV):
siesta: Ebs     =     -4159.540486
siesta: Eions   =     15713.820136
siesta: Ena     =      4220.840356
siesta: Ekin    =      8207.736490
siesta: Enl     =      -798.431036
siesta: DEna    =      -814.566998
siesta: DUscf   =       109.927886
siesta: DUext   =         0.000000
siesta: Exc     =     -4385.929093
siesta: eta*DQ  =         0.000000
siesta: Emadel  =         0.000000
siesta: Emeta   =         0.000000
siesta: Emolmec =         0.000000
siesta: Ekinion =         0.000000
siesta: Eharris =     -9174.242334
siesta: Etot    =     -9174.242532
siesta: FreeEng =     -9174.337477

siesta: Final energy (eV):
siesta:  Band Struct. =   -4159.540486
siesta:       Kinetic =    8207.736490
siesta:       Hartree =   27160.986099
siesta:    Ext. field =       0.000000
siesta:   Exch.-corr. =   -4385.929093
siesta:  Ion-electron =  -62243.512296
siesta:       Ion-ion =   22086.476269
siesta:       Ekinion =       0.000000
siesta:         Total =   -9174.242532

siesta: Atomic forces (eV/Ang):
siesta:      1   16.994752    3.437612    0.000000
siesta:      2    9.018773    0.516488    0.000000
siesta:      3    2.868719    3.151564    0.000000
siesta:      4  -15.478255   -3.413474    0.000000
siesta:      5    1.022071  408.604234    0.000000
siesta:      6   -1.101938    0.372046    0.000000
siesta:      7    4.759788   -3.547012    0.000000
siesta:      8    2.932229    4.160713    0.000000
siesta:      9   -1.788727   -3.218562    0.000000
siesta:     10   -4.882937    3.374021    0.000000
siesta:     11    2.938781   -2.801002    0.000000
siesta:     12   -5.210660    3.291053    0.000000
siesta:     13   -2.163693   -3.858787    0.000000
siesta:     14   -6.361970    3.627563    0.000000
siesta:     15   -0.458043   -2.305686    0.000000
siesta:     16   -5.310483    2.213675    0.000000
siesta:     17   -2.108757   -2.810438    0.000000
siesta:     18    0.173116    2.799005    0.000000
siesta:     19   14.347636    2.027596    0.000000
siesta:     20   20.881565 -401.992701    0.000000
siesta:     21    0.980373    3.879693    0.000000
siesta:     22   -8.105868  548.847542    0.000000
siesta:     23    4.747631 -131.366716    0.000000
siesta:     24    1.444642  127.538649    0.000000
siesta:     25  -18.782194 -553.117896    0.000000
siesta:     26    0.872408  125.880048    0.000000
siesta:     27   17.887235 -550.192778    0.000000
siesta:     28   27.162748 -549.244480    0.000000
siesta:     29    3.665115    2.608478    0.000000
siesta:     30    0.625605   -3.053592    0.000000
siesta:     31  -26.086596    4.162771    0.000000
siesta:     32  -30.887022 -549.198015    0.000000
siesta:     33   16.445736  406.628025    0.000000
siesta:     34    3.108827 -125.428732    0.000000
siesta:     35   35.980831  555.320670    0.000000
siesta:     36   26.864869   -5.363867    0.000000
siesta:     37   -2.347337   -2.090475    0.000000
siesta:     38    2.454434    0.081043    0.000000
siesta:     39   -0.840855   -0.503022    0.000000
siesta:     40    1.755833   -2.181035    0.000000
siesta:     41    0.116006    7.557414    0.000000
siesta:     42    0.087809   -7.402756    0.000000
siesta:     43  -14.562383  546.694078    0.000000
siesta:     44    0.352096 -127.124930    0.000000
siesta:     45   -4.543433  548.218617    0.000000
siesta:     46   -1.072147 -126.760511    0.000000
siesta:     47   22.779991  557.020644    0.000000
siesta:     48   21.982763   -2.696784    0.000000
siesta:     49   -0.905192    1.725954    0.000000
siesta:     50    2.896263   -1.584901    0.000000
siesta:     51    0.356377    0.065468    0.000000
siesta:     52   -1.143178   -0.507526    0.000000
siesta:     53  -33.753314  550.338292    0.000000
siesta:     54  -26.216814   -4.439403    0.000000
siesta:     55  -22.204270  555.632416    0.000000
siesta:     56    2.983060   -1.358721    0.000000
siesta:     57   -6.488173   -2.146854    0.000000
siesta:     58    0.904943    0.501085    0.000000
siesta:     59   -0.271114   -3.577541    0.000000
siesta:     60   -1.073584    1.739617    0.000000
siesta:     61    2.378353   -0.860585    0.000000
siesta:     62    3.685946   -2.731370    0.000000
siesta:     63    5.571680 -556.839183    0.000000
siesta:     64   -2.423511    1.113875    0.000000
siesta:     65    3.450684   -2.923733    0.000000
siesta:     66  -21.469109    6.143770    0.000000
siesta:     67  -29.782574 -555.366059    0.000000
siesta:     68    3.115807    4.946936    0.000000
siesta:     69    6.923125  119.266026    0.000000
siesta:     70    0.930723 -544.899711    0.000000
siesta:     71   -3.181405  128.331488    0.000000
siesta:     72    2.387613 -404.920223    0.000000
siesta: ----------------------------------------
siesta:    Tot   -0.168580   -0.010891    0.000000

siesta: Stress tensor (static) (eV/Ang**3):
siesta:    -0.520909   -0.000255    0.000000
siesta:    -0.000255   -1.744708    0.000000
siesta:     0.000000    0.000000   -0.000434

siesta: Cell volume =       1893.226884 Ang**3

siesta: Pressure (static):
siesta:                Solid            Molecule  Units
siesta:           0.00822673          0.11790037  Ry/Bohr**3
siesta:           0.75535052         10.82521130  eV/Ang**3
siesta:        1210.21803275      17344.08807994  kBar
(Free)E+ p_basis*V_orbitals  =       -9136.964839
(Free)Eharris+ p_basis*V_orbitals  =       -9136.966410

siesta: Electric dipole (a.u.)  =    0.000000    0.000000    0.000000
siesta: Electric dipole (Debye) =    0.000000    0.000000    0.000000

* Maximum dynamic memory allocated : Node    0 =   242 MB
* Maximum dynamic memory allocated : Node    1 =    86 MB
* Maximum dynamic memory allocated : Node    2 =    88 MB
* Maximum dynamic memory allocated : Node    3 =   229 MB
* Maximum dynamic memory allocated : Node    4 =   229 MB
* Maximum dynamic memory allocated : Node    5 =    83 MB
* Maximum dynamic memory allocated : Node    6 =    86 MB
* Maximum dynamic memory allocated : Node    7 =   210 MB

* Maximum memory occured during matrixMtoO                    

timer: CPU execution times:
timer:  Routine       Calls   Time/call    Tot.time        %
timer:  siesta            1  176462.204  176462.204   100.00
timer:  Setup             1       3.799       3.799     0.00
timer:  bands             3     269.304     807.912     0.46
timer:  writewave         1       0.041       0.041     0.00
timer:  KSV_init          1       0.008       0.008     0.00
timer:  IterMD            1  175644.805  175644.805    99.54
timer:  hsparse           1       0.394       0.394     0.00
timer:  overlap           1       7.803       7.803     0.00
timer:  IterSCF          40    4385.342  175413.666    99.41
timer:  kinefsm           2       4.040       8.079     0.00
timer:  nlefsm            2      21.636      43.271     0.02
timer:  DHSCF            41     125.883    5161.211     2.92
timer:  DHSCF1            1       1.002       1.002     0.00
timer:  DHSCF2            1      44.881      44.881     0.03
timer:  REORD           330       0.010       3.299     0.00
timer:  POISON           42       2.241      94.115     0.05
timer:  DHSCF3           41     123.638    5069.162     2.87
timer:  rhoofd           41      26.069    1068.819     0.61
timer:  cellXC           41       3.517     144.184     0.08
timer:  vmat             41      61.709    2530.083     1.43
timer:  MolMec            2       0.000       0.000     0.00
timer:  diagon           40    4257.707  170308.297    96.51
timer:  c-eigval       9361       6.672   62454.370    35.39
timer:  c-buildHS      9361       0.122    1144.692     0.65
timer:  cdiag         18601       6.890  128158.582    72.63
timer:  cdiag1        18601       0.427    7933.602     4.50
timer:  cdiag2        18601       1.905   35430.222    20.08
timer:  cdiag3        18601       3.938   73257.838    41.51
timer:  cdiag4        18601       0.224    4172.268     2.36
timer:  c-eigvec       9240       7.302   67471.249    38.24
timer:  c-buildD       9240       4.452   41139.269    23.31
timer:  DHSCF4            1      43.951      43.951     0.02
timer:  dfscf             1      41.229      41.229     0.02
timer:  overfsm           1       0.490       0.490     0.00
timer:  optical           1       4.998       4.998     0.00
  

elaps: ELAPSED times:
elaps:  Routine       Calls   Time/call    Tot.time        %
elaps:  siesta            1   22083.401   22083.401   100.00
elaps:  Setup             1       0.490       0.490     0.00
elaps:  bands             3      33.716     101.147     0.46
elaps:  writewave         1       0.005       0.005     0.00
elaps:  KSV_init          1       0.001       0.001     0.00
elaps:  IterMD            1   21981.105   21981.105    99.54
elaps:  hsparse           1       0.051       0.051     0.00
elaps:  overlap           1       0.975       0.975     0.00
elaps:  IterSCF          40     548.808   21952.331    99.41
elaps:  kinefsm           2       0.506       1.013     0.00
elaps:  nlefsm            2       2.740       5.480     0.02
elaps:  DHSCF            41      15.878     650.992     2.95
elaps:  DHSCF1            1       0.127       0.127     0.00
elaps:  DHSCF2            1       5.616       5.616     0.03
elaps:  REORD           330       0.001       0.446     0.00
elaps:  POISON           42       0.280      11.768     0.05
elaps:  DHSCF3           41      15.468     634.183     2.87
elaps:  rhoofd           41       6.828     279.958     1.27
elaps:  cellXC           41       0.439      18.012     0.08
elaps:  vmat             41       7.720     316.517     1.43
elaps:  MolMec            2       0.000       0.000     0.00
elaps:  diagon           40     532.850   21314.012    96.52
elaps:  c-eigval       9361       0.835    7814.238    35.39
elaps:  c-buildHS      9361       0.017     156.695     0.71
elaps:  cdiag         18601       0.849   15789.771    71.50
elaps:  cdiag1        18601       0.053     987.678     4.47
elaps:  cdiag2        18601       0.238    4433.203    20.07
elaps:  cdiag3        18601       0.493    9178.251    41.56
elaps:  cdiag4        18601       0.028     527.480     2.39
elaps:  c-eigvec       9240       0.892    8238.587    37.31
elaps:  c-buildD       9240       0.580    5354.693    24.25
elaps:  DHSCF4            1      10.770      10.770     0.05
elaps:  dfscf             1      10.212      10.212     0.05
elaps:  overfsm           1       0.060       0.060     0.00
elaps:  optical           1       0.001       0.001     0.00
  
>> End of run:  28-APR-2016  11:58:47
