Siesta Version:                                        siesta-3.2-pl-3
Architecture  : x86_64-unknown-linux-gnu--unknown
Compiler flags: mpiifort -g -O2 -fPIC -xSSE4.1 -fp-model source -shared-intel 
PARALLEL version

* Running on   12 nodes in parallel
>> Start of run:   7-MAY-2016  18:15:15

                           ***********************       
                           *  WELCOME TO SIESTA  *       
                           ***********************       

reinit: Reading from standard input
************************** Dump of input data file ****************************
#(1) General system descriptors
SystemName            GRP_doping    # Descriptive name of the system
SystemLabel           GRP_doping    # Short name for naming files
%include STRUCT.fdf
%include KPT.fdf
%include BASIS.fdf
#%include TS.fdf # for transiesta calculation
#(4) DFT, Grid, SCF
XC.functional         GGA           # LDA or GGA (default = LDA)
XC.authors            PBE           # CA (Ceperley-Aldr) = PZ
                                    #    (Perdew-Zunger) - LDA - Default
                                    # PW92 (Perdew-Wang-92) - LDA
                                    # PBE (Perdew-Burke-Ernzerhof) - GGA
MeshCutoff            200.000000    Ry      # Default: 50.0 Ry ~ 0.444 Bohr
                                    #         100.0 Ry ~ 0.314 Bohr
MaxSCFIterations      500           # Default: 50
DM.MixingWeight       0.05          # Default: 0.25
DM.NumberPulay        10            # Default: 0
DM.PulayOnFile        F             # SystemLabel.P1, SystemLabel.P2
DM.Tolerance          1.d-4         # Default: 1.d-4
DM.UseSaveDM          .true.        # because of the bug
SCFMustConverge       .true.
NeglNonOverlapInt     F             # Default: F
#(5) Eigenvalue problem: order-N or diagonalization
SolutionMethod        Diagon        # or Transiesta
ElectronicTemperature 300.0 K       # Default: 300.0 K
#(6) Molecular dynamics and relaxations
#MD.TypeOfRun          CG            # Type of dynamics:
#MD.VariableCell       F
#MD.NumCGsteps         0           # 0 for single-point / 100 for gopt
#MD.MaxCGDispl         0.2 Bohr      # Default: 0.2 Bohr
#MD.MaxForceTol        0.02 eV/Ang   # Default: 0.04 eV/Ang
#MD.MaxStressTol       1.0 GPa       # Default: 1.0 GPa
# Geometry Constraints
#%block GeometryConstraints
#	position from 1 to 44
#%endblock GeometryConstraints
BandLinesScale   pi/a
%block BandLines
 1   0.00000000  0.00000000  0.00000000
50   0.00000000  0.07809418  0.00000000
50   0.04509075  0.07809242  0.00000000
20   0.00000000  0.00000000  0.00000000
%endblock BandLines
************************** End of input data file *****************************

reinit: -----------------------------------------------------------------------
reinit: System Name: GRP_doping
reinit: -----------------------------------------------------------------------
reinit: System Label: GRP_doping                                                  
reinit: -----------------------------------------------------------------------

initatom: Reading input for the pseudopotentials and atomic orbitals ----------
 Species number:            1  Label: N Atomic number:           7
 Species number:            2  Label: C Atomic number:           6
Ground state valence configuration:   2s02  2p03
Reading pseudopotential information in formatted form from N.psf

Valence configuration for pseudopotential generation:
2s( 2.00) rc: 1.48
2p( 3.00) rc: 1.48
3d( 0.00) rc: 1.48
4f( 0.00) rc: 1.48
Ground state valence configuration:   2s02  2p02
Reading pseudopotential information in formatted form from C.psf

Valence configuration for pseudopotential generation:
2s( 2.00) rc: 1.54
2p( 2.00) rc: 1.54
3d( 0.00) rc: 1.54
4f( 0.00) rc: 1.54
For N, standard SIESTA heuristics set lmxkb to 3
 (one more than the basis l, including polarization orbitals).
Use PS.lmax or PS.KBprojectors blocks to override.
For C, standard SIESTA heuristics set lmxkb to 3
 (one more than the basis l, including polarization orbitals).
Use PS.lmax or PS.KBprojectors blocks to override.

<basis_specs>
===============================================================================
N                    Z=   7    Mass=  14.010        Charge= 0.17977+309
Lmxo=1 Lmxkb= 3    BasisType=split      Semic=F
L=0  Nsemic=0  Cnfigmx=2
          n=1  nzeta=2  polorb=0
            splnorm:   0.15000    
               vcte:    0.0000    
               rinn:    0.0000    
                rcs:    0.0000      0.0000    
            lambdas:    1.0000      1.0000    
L=1  Nsemic=0  Cnfigmx=2
          n=1  nzeta=2  polorb=1
            splnorm:   0.15000    
               vcte:    0.0000    
               rinn:    0.0000    
                rcs:    0.0000      0.0000    
            lambdas:    1.0000      1.0000    
-------------------------------------------------------------------------------
L=0  Nkbl=1  erefs: 0.17977+309
L=1  Nkbl=1  erefs: 0.17977+309
L=2  Nkbl=1  erefs: 0.17977+309
L=3  Nkbl=1  erefs: 0.17977+309
===============================================================================
</basis_specs>

atom: Called for N                     (Z =   7)

read_vps: Pseudopotential generation method:
read_vps: ATM3      Troullier-Martins                       
Total valence charge:    5.00000

read_vps: Pseudopotential includes a core correction:
read_vps: Pseudo-core for xc-correction

xc_check: Exchange-correlation functional:
xc_check: GGA Perdew, Burke & Ernzerhof 1996
V l=0 = -2*Zval/r beyond r=  1.4606
V l=1 = -2*Zval/r beyond r=  1.4606
V l=2 = -2*Zval/r beyond r=  1.4606
V l=3 = -2*Zval/r beyond r=  1.4606
All V_l potentials equal beyond r=  1.4606
This should be close to max(r_c) in ps generation
All pots = -2*Zval/r beyond r=  1.4606

VLOCAL1: 99.0% of the norm of Vloc inside     20.347 Ry
VLOCAL1: 99.9% of the norm of Vloc inside     46.372 Ry
atom: Maximum radius for 4*pi*r*r*local-pseudopot. charge    1.76189
atom: Maximum radius for r*vlocal+2*Zval:    1.53550
GHOST: No ghost state for L =  0
GHOST: No ghost state for L =  1
GHOST: No ghost state for L =  2
GHOST: No ghost state for L =  3

KBgen: Kleinman-Bylander projectors: 
   l= 0   rc=  1.634559   el= -1.363963   Ekb=  5.296955   kbcos=  0.335621
   l= 1   rc=  1.614250   el= -0.521451   Ekb= -5.259161   kbcos= -0.433408
   l= 2   rc=  1.718383   el=  0.001991   Ekb= -1.271464   kbcos= -0.007566
   l= 3   rc=  1.761893   el=  0.003093   Ekb= -0.494769   kbcos= -0.001015

KBgen: Total number of  Kleinman-Bylander projectors:   16
atom: -------------------------------------------------------------------------

atom: SANKEY-TYPE ORBITALS:
atom: Selected multiple-zeta basis: split     

SPLIT: Orbitals with angular momentum L= 0

SPLIT: Basis orbitals for state 2s

SPLIT: PAO cut-off radius determined from an
SPLIT: energy shift=  0.007350 Ry

   izeta = 1
                 lambda =    1.000000
                     rc =    4.071465
                 energy =   -1.356470
                kinetic =    1.176977
    potential(screened) =   -2.533447
       potential(ionic) =   -8.057990

   izeta = 2
                 rmatch =    2.905100
              splitnorm =    0.150000
                 energy =   -1.158343
                kinetic =    1.813009
    potential(screened) =   -2.971352
       potential(ionic) =   -8.901931

SPLIT: Orbitals with angular momentum L= 1

SPLIT: Basis orbitals for state 2p

SPLIT: PAO cut-off radius determined from an
SPLIT: energy shift=  0.007350 Ry

   izeta = 1
                 lambda =    1.000000
                     rc =    4.972977
                 energy =   -0.513884
                kinetic =    3.441732
    potential(screened) =   -3.955616
       potential(ionic) =   -9.287901

   izeta = 2
                 rmatch =    3.054066
              splitnorm =    0.150000
                 energy =   -0.318226
                kinetic =    5.125348
    potential(screened) =   -5.443573
       potential(ionic) =  -11.380999

POLgen: Perturbative polarization orbital with L=  2

POLgen: Polarization orbital for state 2p

   izeta = 1
                     rc =    4.972977
                 energy =    1.607437
                kinetic =    3.268125
    potential(screened) =   -1.660688
       potential(ionic) =   -5.973652
atom: Total number of Sankey-type orbitals: 13

atm_pop: Valence configuration (for local Pseudopot. screening):
 2s( 2.00)                                                            
 2p( 3.00)                                                            
Vna: chval, zval:    5.00000   5.00000

Vna:  Cut-off radius for the neutral-atom potential:   4.972977
comcore: Pseudo-core radius Rcore=  1.554824

atom: _________________________________________________________________________

<basis_specs>
===============================================================================
C                    Z=   6    Mass=  12.010        Charge= 0.17977+309
Lmxo=1 Lmxkb= 3    BasisType=split      Semic=F
L=0  Nsemic=0  Cnfigmx=2
          n=1  nzeta=2  polorb=0
            splnorm:   0.15000    
               vcte:    0.0000    
               rinn:    0.0000    
                rcs:    0.0000      0.0000    
            lambdas:    1.0000      1.0000    
L=1  Nsemic=0  Cnfigmx=2
          n=1  nzeta=2  polorb=1
            splnorm:   0.15000    
               vcte:    0.0000    
               rinn:    0.0000    
                rcs:    0.0000      0.0000    
            lambdas:    1.0000      1.0000    
-------------------------------------------------------------------------------
L=0  Nkbl=1  erefs: 0.17977+309
L=1  Nkbl=1  erefs: 0.17977+309
L=2  Nkbl=1  erefs: 0.17977+309
L=3  Nkbl=1  erefs: 0.17977+309
===============================================================================
</basis_specs>

atom: Called for C                     (Z =   6)

read_vps: Pseudopotential generation method:
read_vps: ATM3      Troullier-Martins                       
Total valence charge:    4.00000

read_vps: Pseudopotential includes a core correction:
read_vps: Pseudo-core for xc-correction

xc_check: Exchange-correlation functional:
xc_check: GGA Perdew, Burke & Ernzerhof 1996
V l=0 = -2*Zval/r beyond r=  1.5227
V l=1 = -2*Zval/r beyond r=  1.5227
V l=2 = -2*Zval/r beyond r=  1.5227
V l=3 = -2*Zval/r beyond r=  1.5038
All V_l potentials equal beyond r=  1.5227
This should be close to max(r_c) in ps generation
All pots = -2*Zval/r beyond r=  1.5227

VLOCAL1: 99.0% of the norm of Vloc inside     18.722 Ry
VLOCAL1: 99.9% of the norm of Vloc inside     42.668 Ry
atom: Maximum radius for 4*pi*r*r*local-pseudopot. charge    1.83678
atom: Maximum radius for r*vlocal+2*Zval:    1.58088
GHOST: No ghost state for L =  0
GHOST: No ghost state for L =  1
GHOST: No ghost state for L =  2
GHOST: No ghost state for L =  3

KBgen: Kleinman-Bylander projectors: 
   l= 0   rc=  1.704034   el= -1.009801   Ekb=  5.335044   kbcos=  0.316824
   l= 1   rc=  1.704034   el= -0.388707   Ekb= -3.785862   kbcos= -0.366464
   l= 2   rc=  1.791422   el=  0.001971   Ekb= -0.970471   kbcos= -0.009212
   l= 3   rc=  1.859892   el=  0.003065   Ekb= -0.399525   kbcos= -0.001223

KBgen: Total number of  Kleinman-Bylander projectors:   16
atom: -------------------------------------------------------------------------

atom: SANKEY-TYPE ORBITALS:
atom: Selected multiple-zeta basis: split     

SPLIT: Orbitals with angular momentum L= 0

SPLIT: Basis orbitals for state 2s

SPLIT: PAO cut-off radius determined from an
SPLIT: energy shift=  0.007350 Ry

   izeta = 1
                 lambda =    1.000000
                     rc =    4.632753
                 energy =   -1.002270
                kinetic =    0.855760
    potential(screened) =   -1.858031
       potential(ionic) =   -5.417575

   izeta = 2
                 rmatch =    3.431921
              splitnorm =    0.150000
                 energy =   -0.867111
                kinetic =    1.300804
    potential(screened) =   -2.167915
       potential(ionic) =   -5.962684

SPLIT: Orbitals with angular momentum L= 1

SPLIT: Basis orbitals for state 2p

SPLIT: PAO cut-off radius determined from an
SPLIT: energy shift=  0.007350 Ry

   izeta = 1
                 lambda =    1.000000
                     rc =    5.658549
                 energy =   -0.381140
                kinetic =    2.399701
    potential(screened) =   -2.780841
       potential(ionic) =   -6.206085

   izeta = 2
                 rmatch =    3.653288
              splitnorm =    0.150000
                 energy =   -0.249149
                kinetic =    3.542762
    potential(screened) =   -3.791911
       potential(ionic) =   -7.581078

POLgen: Perturbative polarization orbital with L=  2

POLgen: Polarization orbital for state 2p

   izeta = 1
                     rc =    5.658549
                 energy =    1.109913
                kinetic =    2.304789
    potential(screened) =   -1.194876
       potential(ionic) =   -4.013592
atom: Total number of Sankey-type orbitals: 13

atm_pop: Valence configuration (for local Pseudopot. screening):
 2s( 2.00)                                                            
 2p( 2.00)                                                            
Vna: chval, zval:    4.00000   4.00000

Vna:  Cut-off radius for the neutral-atom potential:   5.658549
comcore: Pseudo-core radius Rcore=  1.791422

atom: _________________________________________________________________________

prinput: Basis input ----------------------------------------------------------

PAO.BasisType split     

%block ChemicalSpeciesLabel
    1    7 N                       # Species index, atomic number, species label
    2    6 C                       # Species index, atomic number, species label
%endblock ChemicalSpeciesLabel

%block PAO.Basis                 # Define Basis set
N                     2                    # Species label, number of l-shells
 n=2   0   2                         # n, l, Nzeta 
   4.071      2.905   
   1.000      1.000   
 n=2   1   2 P   1                   # n, l, Nzeta, Polarization, NzetaPol
   4.973      3.054   
   1.000      1.000   
C                     2                    # Species label, number of l-shells
 n=2   0   2                         # n, l, Nzeta 
   4.633      3.432   
   1.000      1.000   
 n=2   1   2 P   1                   # n, l, Nzeta, Polarization, NzetaPol
   5.659      3.653   
   1.000      1.000   
%endblock PAO.Basis

prinput: ----------------------------------------------------------------------

coor:   Atomic-coordinates input format  =     Fractional

siesta: Atomic coordinates (Bohr) and species
siesta:      2.30256   6.62836   0.00000  1        1
siesta:      2.30256   9.31683   0.00000  1        2
siesta:     -0.02582  10.66124   0.00000  1        3
siesta:     -0.02582  13.34970   0.00000  1        4
siesta:     -4.68258  13.34970   0.00000  1        5
siesta:     -2.35420  14.69411   0.00000  1        6
siesta:     -2.35420  17.38257   0.00000  1        7
siesta:     -0.02582  18.72698   0.00000  1        8
siesta:     -0.02582  21.41544   0.00000  1        9
siesta:      2.30256  22.75985   0.00000  1       10
siesta:      2.30256  25.44831   0.00000  1       11
siesta:     -0.02582   2.59549   0.00000  2       12
siesta:     -0.02582   5.28395   0.00000  2       13
siesta:     -2.35420  38.89134   0.00000  2       14
siesta:     -2.35420  41.57980   0.00000  2       15
siesta:      2.30256  38.89134   0.00000  2       16
siesta:      2.30256  41.57980   0.00000  2       17
siesta:      4.63094  34.85847   0.00000  2       18
siesta:      4.63094  37.54693   0.00000  2       19
siesta:      6.95932  30.82560   0.00000  2       20
siesta:      6.95932  33.51406   0.00000  2       21
siesta:      9.28770  26.79272   0.00000  2       22
siesta:      9.28770  29.48119   0.00000  2       23
siesta:     -4.68258  34.85847   0.00000  2       24
siesta:     -4.68258  37.54693   0.00000  2       25
siesta:      4.63094  10.66124   0.00000  2       26
siesta:      4.63094  13.34970   0.00000  2       27
siesta:      6.95932  14.69411   0.00000  2       28
siesta:      6.95932  17.38257   0.00000  2       29
siesta:      9.28770  18.72698   0.00000  2       30
siesta:      9.28770  21.41544   0.00000  2       31
siesta:     11.61608  22.75985   0.00000  2       32
siesta:     11.61608  25.44831   0.00000  2       33
siesta:     -2.35420   6.62836   0.00000  2       34
siesta:     -2.35420   9.31683   0.00000  2       35
siesta:      2.30256  14.69411   0.00000  2       36
siesta:      2.30256  17.38257   0.00000  2       37
siesta:      4.63094  18.72698   0.00000  2       38
siesta:      4.63094  21.41544   0.00000  2       39
siesta:      6.95932  22.75985   0.00000  2       40
siesta:      6.95932  25.44831   0.00000  2       41
siesta:     -4.68258  10.66124   0.00000  2       42
siesta:     -7.01096  14.69411   0.00000  2       43
siesta:     -7.01096  17.38257   0.00000  2       44
siesta:     -4.68258  18.72698   0.00000  2       45
siesta:     -4.68258  21.41544   0.00000  2       46
siesta:     -2.35420  22.75985   0.00000  2       47
siesta:     -2.35420  25.44831   0.00000  2       48
siesta:     -9.33934  18.72698   0.00000  2       49
siesta:     -9.33934  21.41544   0.00000  2       50
siesta:     -7.01096  22.75985   0.00000  2       51
siesta:     -7.01096  25.44831   0.00000  2       52
siesta:    -11.66772  22.75985   0.00000  2       53
siesta:    -11.66772  25.44831   0.00000  2       54
siesta:     -9.33934  26.79272   0.00000  2       55
siesta:     -9.33934  29.48119   0.00000  2       56
siesta:      4.63094  26.79272   0.00000  2       57
siesta:      4.63094  29.48119   0.00000  2       58
siesta:     -0.02582  26.79272   0.00000  2       59
siesta:     -0.02582  29.48119   0.00000  2       60
siesta:     -4.68258  26.79272   0.00000  2       61
siesta:     -4.68258  29.48119   0.00000  2       62
siesta:      2.30256  30.82560   0.00000  2       63
siesta:      2.30256  33.51406   0.00000  2       64
siesta:     -2.35420  30.82560   0.00000  2       65
siesta:     -2.35420  33.51406   0.00000  2       66
siesta:     -7.01096  30.82560   0.00000  2       67
siesta:     -7.01096  33.51406   0.00000  2       68
siesta:     -0.02582  34.85847   0.00000  2       69
siesta:     -0.02582  37.54693   0.00000  2       70
siesta:     -0.02582  42.92421   0.00000  2       71
siesta:     -0.02582  45.61267   0.00000  2       72

siesta: System type = slab      

initatomlists: Number of atoms, orbitals, and projectors:     72   936  1152

siesta: ******************** Simulation parameters ****************************
siesta:
siesta: The following are some of the parameters of the simulation.
siesta: A complete list of the parameters used, including default values,
siesta: can be found in file out.fdf
siesta:
redata: Non-Collinear-spin run           =     F
redata: SpinPolarized (Up/Down) run      =     F
redata: Number of spin components        =     1
redata: Long output                      =     F
redata: Number of Atomic Species         =        2
redata: Charge density info will appear in .RHO file
redata: Write Mulliken Pop.              =     NO
redata: Mesh Cutoff                      =   200.0000  Ry
redata: Net charge of the system         =     0.0000 |e|
redata: Max. number of SCF Iter          =      500
redata: SCF convergence failure will abort job
redata: Performing Pulay mixing using    =    10 iterations
redata: Mix DM in first SCF step ?       =     F
redata: Write Pulay info on disk?        =     F
redata: Discard 1st Pulay DM after  kick =     F
redata: New DM Mixing Weight             =     0.0500
redata: New DM Occupancy tolerance       = 0.000000000001
redata: No kicks to SCF
redata: DM Mixing Weight for Kicks       =     0.5000
redata: DM Tolerance for SCF             =     0.000100
redata: Require Energy convergence for SCF =     F
redata: DM Energy tolerance for SCF      =     0.000100 eV
redata: Require Harris convergence for SCF =     F
redata: DM Harris energy tolerance for SCF =     0.000100 eV
redata: Using Saved Data (generic)   =     F
redata: Use continuation files for DM    =     T
redata: Neglect nonoverlap interactions  =     F
redata: Method of Calculation            =     Diagonalization
redata: Divide and Conquer               =     T
redata: Electronic Temperature           =     0.0019  Ry
redata: Fix the spin of the system       =     F
redata: Dynamics option                  =     Verlet MD run
redata: Initial MD time step             =        1
redata:   Final MD time step             =        1
redata: Length of MD time step           =     1.0000  fs
redata: Initial Temperature of MD run    =     0.0000  K
redata: Perform a MD quench              =     F
redata: ***********************************************************************
Total number of electrons:   299.000000
Total ionic charge:   299.000000

* ProcessorY, Blocksize:    3  24

k-point displ. along   1 input, could be:     0.50    0.00
k-point displ. along   2 input, could be:     0.50    0.00
 Kpoints in:          231 . Kpoints trimmed:          231

siesta: k-grid: Number of k-points =   231
siesta: k-grid: Cutoff (effective) =     5.000 Ang
siesta: k-grid: Supercell and displacements
siesta: k-grid:   21   0   0      0.500
siesta: k-grid:    0  21   0      0.500
siesta: k-grid:    0   0   1      0.000
Naive supercell factors:     2    2    2

superc: Internal auxiliary supercell:     2 x     2 x     2  =       8
superc: Number of atoms, orbitals, and projectors:    576   7488   9216

* Maximum dynamic memory allocated =     4 MB

siesta:                 ==============================
                            Begin MD step =      1
                        ==============================

superc: Internal auxiliary supercell:     2 x     2 x     2  =       8
superc: Number of atoms, orbitals, and projectors:    576   7488   9216

outcell: Unit cell vectors (Ang):
       12.804619    7.392750    0.000000
        0.000000   14.785500    0.000000
        0.000000    0.000000   10.000000

outcell: Cell vector modules (Ang)   :   14.785500   14.785500   10.000000
outcell: Cell angles (23,13,12) (deg):     90.0000     90.0000     60.0000
outcell: Cell volume (Ang**3)        :   1893.2269
New_DM. Step:     1
Initializing Density Matrix...

InitMesh: MESH =   120 x   120 x    90 =     1296000
InitMesh: Mesh cutoff (required, used) =   200.000   223.865 Ry

* Maximum dynamic memory allocated =   137 MB

stepf: Fermi-Dirac step function

siesta: Program's energy decomposition (eV):
siesta: Ebs     =     -6137.242826
siesta: Eions   =     20171.226357
siesta: Ena     =      4843.401733
siesta: Ekin    =      7301.325480
siesta: Enl     =       296.200184
siesta: DEna    =        -0.000015
siesta: DUscf   =         0.000000
siesta: DUext   =         0.000000
siesta: Exc     =     -4450.325198
siesta: eta*DQ  =         0.000000
siesta: Emadel  =         0.000000
siesta: Emeta   =         0.000000
siesta: Emolmec =         0.000000
siesta: Ekinion =         0.000000
siesta: Eharris =    -11816.001674
siesta: Etot    =    -12180.624174
siesta: FreeEng =    -12180.624174

siesta: iscf   Eharris(eV)      E_KS(eV)   FreeEng(eV)   dDmax  Ef(eV)
siesta:    1   -11816.0017   -12180.6242   -12180.6242  6.1213 -7.3411
timer: Routine,Calls,Time,% = IterSCF        1    3019.778  99.60
elaps: Routine,Calls,Wall,% = IterSCF        1     252.249  99.60
siesta:    2   -14964.5598   -11296.1741   -11296.2128 11.4624 -1.9466
siesta:    3   -11747.6714   -11924.5112   -11924.5425  1.8940 -4.6852
siesta:    4   -11708.4912   -11826.6577   -11826.7026  1.0307 -4.3422
siesta:    5   -11675.6005   -11760.7779   -11760.8055  0.7367 -4.1911
siesta:    6   -11671.9274   -11748.5223   -11748.5518  0.7477 -4.2212
siesta:    7   -11670.2778   -11744.5923   -11744.6363  0.7168 -4.3054
siesta:    8   -11665.8759   -11725.3013   -11725.3474  0.5782 -4.3494
siesta:    9   -11664.1388   -11711.9606   -11712.0327  0.5541 -4.3176
siesta:   10   -11664.3165   -11687.0523   -11687.1217  0.4319 -4.2472
siesta:   11   -11663.8572   -11673.3093   -11673.3694  0.3488 -4.1631
siesta:   12   -11664.0250   -11663.9426   -11663.9875  0.3086 -4.2212
siesta:   13   -11663.4147   -11659.8474   -11659.9083  0.1981 -4.2280
siesta:   14   -11663.0739   -11658.9480   -11659.0077  0.1824 -4.2235
siesta:   15   -11662.7551   -11655.7032   -11655.7490  0.1246 -4.2612
siesta:   16   -11662.6690   -11657.7752   -11657.8545  0.0978 -4.2813
siesta:   17   -11662.6203   -11659.0566   -11659.1228  0.0555 -4.2951
siesta:   18   -11662.6111   -11659.8930   -11659.9680  0.0351 -4.2879
siesta:   19   -11662.5870   -11660.4697   -11660.5341  0.0287 -4.2881
siesta:   20   -11662.5893   -11661.3073   -11661.3814  0.0222 -4.2813
siesta:   21   -11662.5861   -11662.3343   -11662.4042  0.0124 -4.2813
siesta:   22   -11662.5818   -11662.5048   -11662.5767  0.0104 -4.2846
siesta:   23   -11662.5779   -11662.5818   -11662.6549  0.0081 -4.2850
siesta:   24   -11662.5769   -11662.6090   -11662.6827  0.0065 -4.2841
siesta:   25   -11662.5768   -11662.5428   -11662.6169  0.0049 -4.2838
siesta:   26   -11662.5771   -11662.7471   -11662.8207  0.0033 -4.2834
siesta:   27   -11662.5765   -11662.6932   -11662.7664  0.0021 -4.2819
siesta:   28   -11662.5766   -11662.6620   -11662.7356  0.0011 -4.2813
siesta:   29   -11662.5766   -11662.6336   -11662.7071  0.0007 -4.2814
siesta:   30   -11662.5767   -11662.5982   -11662.6717  0.0006 -4.2818
siesta:   31   -11662.5766   -11662.5846   -11662.6580  0.0004 -4.2820
siesta:   32   -11662.5766   -11662.5735   -11662.6470  0.0003 -4.2823
siesta:   33   -11662.5765   -11662.5810   -11662.6545  0.0002 -4.2823
siesta:   34   -11662.5766   -11662.5806   -11662.6541  0.0002 -4.2823
siesta:   35   -11662.5766   -11662.5753   -11662.6488  0.0002 -4.2823
siesta:   36   -11662.5766   -11662.5741   -11662.6475  0.0001 -4.2823
siesta:   37   -11662.5766   -11662.5702   -11662.6436  0.0001 -4.2823

siesta: E_KS(eV) =           -11662.5717

siesta: E_KS - E_eggbox =    -11662.5717

siesta: Atomic forces (eV/Ang):
----------------------------------------
   Tot   -0.156746    0.095073    0.000000
----------------------------------------
   Max  683.106149
   Res  176.438638    sqrt( Sum f_i^2 / 3N )
----------------------------------------
   Max  683.106149    constrained

Stress-tensor-Voigt (kbar):     -667.83    -3160.96       -0.15      -27.82        0.00        0.00
(Free)E + p*V (eV/cell)   -10154.4919
Target enthalpy (eV/cell)   -11662.6451

siesta: Stress tensor (static) (eV/Ang**3):
        -0.416824   -0.017365    0.000000
        -0.017365   -1.972898    0.000000
         0.000000    0.000000   -0.000093

siesta: Pressure (static):       1276.31510352  kBar

siesta: Stress tensor (total) (eV/Ang**3):
        -0.416824   -0.017365    0.000000
        -0.017365   -1.972898    0.000000
         0.000000    0.000000   -0.000093

siesta: Pressure (total):       1276.31510352  kBar

siesta: Temp_ion =       0.000 K

* Maximum dynamic memory allocated =   150 MB
Computing bands...

siesta: Program's energy decomposition (eV):
siesta: Ebs     =     -4842.361609
siesta: Eions   =     20171.226357
siesta: Ena     =      4843.401733
siesta: Ekin    =     10439.469534
siesta: Enl     =     -1429.152886
siesta: DEna    =      -823.598506
siesta: DUscf   =       110.041833
siesta: DUext   =         0.000000
siesta: Exc     =     -4631.507012
siesta: eta*DQ  =         0.000000
siesta: Emadel  =         0.000000
siesta: Emeta   =         0.000000
siesta: Emolmec =         0.000000
siesta: Ekinion =         0.000000
siesta: Eharris =    -11662.576555
siesta: Etot    =    -11662.571661
siesta: FreeEng =    -11662.645147

siesta: Final energy (eV):
siesta:  Band Struct. =   -4842.361609
siesta:       Kinetic =   10439.469534
siesta:       Hartree =   34482.960220
siesta:    Ext. field =       0.000000
siesta:   Exch.-corr. =   -4631.507012
siesta:  Ion-electron =  -78984.875072
siesta:       Ion-ion =   27031.380669
siesta:       Ekinion =       0.000000
siesta:         Total =  -11662.571661

siesta: Atomic forces (eV/Ang):
siesta:      1   13.307478  649.084688    0.000000
siesta:      2    1.376243 -104.623878    0.000000
siesta:      3   -5.938537  658.056470    0.000000
siesta:      4    3.003025 -107.877400    0.000000
siesta:      5  -33.454520  -11.131287    0.000000
siesta:      6    1.404512  683.106149    0.000000
siesta:      7  -34.504313  -11.473790    0.000000
siesta:      8   19.857208  681.232317    0.000000
siesta:      9    0.404579   -2.257198    0.000000
siesta:     10    2.237640    0.366043    0.000000
siesta:     11   -0.298845    1.085847    0.000000
siesta:     12   -0.541817  548.099350    0.000000
siesta:     13   -1.464120 -130.829893    0.000000
siesta:     14    3.594211  116.592041    0.000000
siesta:     15  -21.906352 -656.440089    0.000000
siesta:     16    1.498529  119.003000    0.000000
siesta:     17   -4.366959 -546.178871    0.000000
siesta:     18   27.808975    5.148521    0.000000
siesta:     19   22.247231 -552.667272    0.000000
siesta:     20    2.129508   -0.082948    0.000000
siesta:     21   -2.837549    1.043705    0.000000
siesta:     22    2.206998    2.123222    0.000000
siesta:     23   -1.142477    0.330871    0.000000
siesta:     24  -26.937236    5.376247    0.000000
siesta:     25  -34.894305 -552.948214    0.000000
siesta:     26   30.455294  554.778654    0.000000
siesta:     27   28.134196   -4.277413    0.000000
siesta:     28   -2.858678   -1.508703    0.000000
siesta:     29    2.107728   -0.064885    0.000000
siesta:     30   -1.079144   -0.491925    0.000000
siesta:     31    2.214032   -1.982495    0.000000
siesta:     32   -0.310256    7.533272    0.000000
siesta:     33   -0.225560   -7.613959    0.000000
siesta:     34  -12.666349  548.537275    0.000000
siesta:     35   -2.399509 -127.768127    0.000000
siesta:     36   29.007008  560.663639    0.000000
siesta:     37   25.417751   -9.457671    0.000000
siesta:     38   -1.776948    3.741077    0.000000
siesta:     39   -0.694154   -0.400935    0.000000
siesta:     40   -0.401751    0.993887    0.000000
siesta:     41   -0.499355   -0.778748    0.000000
siesta:     42  -23.844540  549.495862    0.000000
siesta:     43    1.477929   -1.442265    0.000000
siesta:     44   -0.348028   -0.877700    0.000000
siesta:     45    0.428748    2.743004    0.000000
siesta:     46    1.249110   -1.063691    0.000000
siesta:     47   -0.880099    0.853440    0.000000
siesta:     48    1.368445   -0.998089    0.000000
siesta:     49    0.536026   -0.355984    0.000000
siesta:     50   -2.103000   -2.100604    0.000000
siesta:     51   -0.036133    0.961601    0.000000
siesta:     52    0.385911   -0.716374    0.000000
siesta:     53    0.141759    7.345286    0.000000
siesta:     54    0.226896   -7.389911    0.000000
siesta:     55   -2.495307    2.004488    0.000000
siesta:     56    1.218104    0.183450    0.000000
siesta:     57   -0.219357   -0.313101    0.000000
siesta:     58   -1.851224   -3.249755    0.000000
siesta:     59    0.519262   -1.620445    0.000000
siesta:     60    1.153119 -563.371982    0.000000
siesta:     61   -0.558016    0.568522    0.000000
siesta:     62    0.656950   -2.846820    0.000000
siesta:     63   22.819799    5.093033    0.000000
siesta:     64   17.630218 -677.946854    0.000000
siesta:     65  -22.029731    5.996671    0.000000
siesta:     66  -23.210807 -560.239684    0.000000
siesta:     67   -1.747956   -0.148631    0.000000
siesta:     68    2.243564    1.726788    0.000000
siesta:     69    2.570246  124.202974    0.000000
siesta:     70   12.333223 -669.022079    0.000000
siesta:     71    0.541722  115.773668    0.000000
siesta:     72  -15.546989 -639.190315    0.000000
siesta: ----------------------------------------
siesta:    Tot   -0.156746    0.095073    0.000000

siesta: Stress tensor (static) (eV/Ang**3):
siesta:    -0.416824   -0.017365    0.000000
siesta:    -0.017365   -1.972898    0.000000
siesta:     0.000000    0.000000   -0.000093

siesta: Cell volume =       1893.226884 Ang**3

siesta: Pressure (static):
siesta:                Solid            Molecule  Units
siesta:           0.00867604          0.13957398  Ry/Bohr**3
siesta:           0.79660462         12.81520813  eV/Ang**3
siesta:        1276.31510352      20532.44896487  kBar
(Free)E+ p_basis*V_orbitals  =      -11633.480128
(Free)Eharris+ p_basis*V_orbitals  =      -11633.486513

siesta: Electric dipole (a.u.)  =    0.000000    0.000000    0.000000
siesta: Electric dipole (Debye) =    0.000000    0.000000    0.000000

* Maximum dynamic memory allocated : Node    0 =   150 MB
* Maximum dynamic memory allocated : Node    1 =    60 MB
* Maximum dynamic memory allocated : Node    2 =    60 MB
* Maximum dynamic memory allocated : Node    3 =   137 MB
* Maximum dynamic memory allocated : Node    4 =   143 MB
* Maximum dynamic memory allocated : Node    5 =    52 MB
* Maximum dynamic memory allocated : Node    6 =    55 MB
* Maximum dynamic memory allocated : Node    7 =   138 MB
* Maximum dynamic memory allocated : Node    8 =   131 MB
* Maximum dynamic memory allocated : Node    9 =    53 MB
* Maximum dynamic memory allocated : Node   10 =    54 MB
* Maximum dynamic memory allocated : Node   11 =   124 MB

* Maximum memory occured during matrixMtoO                    

timer: CPU execution times:
timer:  Routine       Calls   Time/call    Tot.time        %
timer:  siesta            1  108929.704  108929.704   100.00
timer:  Setup             1       3.352       3.352     0.00
timer:  bands             3     226.864     680.592     0.62
timer:  writewave         1       0.023       0.023     0.00
timer:  KSV_init          1       0.003       0.003     0.00
timer:  IterMD            1  108238.810  108238.810    99.37
timer:  hsparse           1       0.170       0.170     0.00
timer:  overlap           1       6.355       6.355     0.01
timer:  IterSCF          37    2922.081  108117.010    99.25
timer:  kinefsm           2       3.226       6.451     0.01
timer:  nlefsm            2      18.368      36.736     0.03
timer:  DHSCF            38      61.984    2355.408     2.16
timer:  DHSCF1            1       0.902       0.902     0.00
timer:  DHSCF2            1      24.510      24.510     0.02
timer:  REORD           306       0.003       0.775     0.00
timer:  POISON           39       0.447      17.439     0.02
timer:  DHSCF3           38      60.748    2308.420     2.12
timer:  rhoofd           38      12.731     483.781     0.44
timer:  cellXC           38       2.511      95.404     0.09
timer:  vmat             38      27.708    1052.910     0.97
timer:  MolMec            2       0.000       0.000     0.00
timer:  diagon           37    2858.821  105776.395    97.11
timer:  c-eigval       8668       5.598   48526.355    44.55
timer:  c-buildHS      8668       0.033     288.173     0.26
timer:  cdiag         17215       5.689   97940.429    89.91
timer:  cdiag1        17215       0.260    4481.460     4.11
timer:  cdiag2        17215       1.843   31718.997    29.12
timer:  cdiag3        17215       3.387   58302.234    53.52
timer:  cdiag4        17215       0.087    1503.221     1.38
timer:  c-eigvec       8547       5.843   49944.054    45.85
timer:  c-buildD       8547       0.929    7938.927     7.29
timer:  DHSCF4            1      21.288      21.288     0.02
timer:  dfscf             1      19.856      19.856     0.02
timer:  overfsm           1       0.286       0.286     0.00
timer:  optical           1       6.341       6.341     0.01
  

elaps: ELAPSED times:
elaps:  Routine       Calls   Time/call    Tot.time        %
elaps:  siesta            1    9098.819    9098.819   100.00
elaps:  Setup             1       0.280       0.280     0.00
elaps:  bands             3      18.965      56.896     0.63
elaps:  writewave         1       0.002       0.002     0.00
elaps:  KSV_init          1       0.000       0.000     0.00
elaps:  IterMD            1    9041.109    9041.109    99.37
elaps:  hsparse           1       0.016       0.016     0.00
elaps:  overlap           1       0.710       0.710     0.01
elaps:  IterSCF          37     244.079    9030.934    99.25
elaps:  kinefsm           2       0.362       0.724     0.01
elaps:  nlefsm            2       1.630       3.260     0.04
elaps:  DHSCF            38       5.227     198.610     2.18
elaps:  DHSCF1            1       0.077       0.077     0.00
elaps:  DHSCF2            1       2.046       2.046     0.02
elaps:  REORD           306       0.000       0.091     0.00
elaps:  POISON           39       0.038       1.474     0.02
elaps:  DHSCF3           38       5.075     192.838     2.12
elaps:  rhoofd           38       2.502      95.093     1.05
elaps:  cellXC           38       0.209       7.954     0.09
elaps:  vmat             38       2.315      87.961     0.97
elaps:  MolMec            2       0.000       0.000     0.00
elaps:  diagon           37     238.799    8835.545    97.11
elaps:  c-eigval       8668       0.468    4053.337    44.55
elaps:  c-buildHS      8668       0.003      30.199     0.33
elaps:  cdiag         17215       0.472    8132.469    89.38
elaps:  cdiag1        17215       0.021     368.471     4.05
elaps:  cdiag2        17215       0.154    2651.797    29.14
elaps:  cdiag3        17215       0.283    4877.404    53.60
elaps:  cdiag4        17215       0.007     119.983     1.32
elaps:  c-eigvec       8547       0.484    4134.821    45.44
elaps:  c-buildD       8547       0.082     699.632     7.69
elaps:  DHSCF4            1       3.611       3.611     0.04
elaps:  dfscf             1       3.419       3.419     0.04
elaps:  overfsm           1       0.029       0.029     0.00
elaps:  optical           1       0.000       0.000     0.00
  
>> End of run:   7-MAY-2016  20:46:54
