Siesta Version:                                        siesta-3.2-pl-3
Architecture  : x86_64-unknown-linux-gnu--unknown
Compiler flags: mpiifort -g -O2 -fPIC -xSSE4.1 -fp-model source -shared-intel 
PARALLEL version

* Running on    8 nodes in parallel
>> Start of run:  19-APR-2016  19:51:39

                           ***********************       
                           *  WELCOME TO SIESTA  *       
                           ***********************       

reinit: Reading from standard input
************************** Dump of input data file ****************************
#(1) General system descriptors
SystemName            GRP_doping    # Descriptive name of the system
SystemLabel           GRP_doping    # Short name for naming files
%include STRUCT.fdf
%include KPT.fdf
%include BASIS.fdf
#%include TS.fdf # for transiesta calculation
#(4) DFT, Grid, SCF
XC.functional         GGA           # LDA or GGA (default = LDA)
XC.authors            PBE           # CA (Ceperley-Aldr) = PZ
                                    #    (Perdew-Zunger) - LDA - Default
                                    # PW92 (Perdew-Wang-92) - LDA
                                    # PBE (Perdew-Burke-Ernzerhof) - GGA
MeshCutoff            200.000000    Ry      # Default: 50.0 Ry ~ 0.444 Bohr
                                    #         100.0 Ry ~ 0.314 Bohr
MaxSCFIterations      500           # Default: 50
DM.MixingWeight       0.05          # Default: 0.25
DM.NumberPulay        10            # Default: 0
DM.PulayOnFile        F             # SystemLabel.P1, SystemLabel.P2
DM.Tolerance          1.d-4         # Default: 1.d-4
DM.UseSaveDM          .true.        # because of the bug
SCFMustConverge       .true.
NeglNonOverlapInt     F             # Default: F
#(5) Eigenvalue problem: order-N or diagonalization
SolutionMethod        Diagon        # or Transiesta
ElectronicTemperature 300.0 K       # Default: 300.0 K
#(6) Molecular dynamics and relaxations
#MD.TypeOfRun          CG            # Type of dynamics:
#MD.VariableCell       F
#MD.NumCGsteps         0           # 0 for single-point / 100 for gopt
#MD.MaxCGDispl         0.2 Bohr      # Default: 0.2 Bohr
#MD.MaxForceTol        0.02 eV/Ang   # Default: 0.04 eV/Ang
#MD.MaxStressTol       1.0 GPa       # Default: 1.0 GPa
# Geometry Constraints
#%block GeometryConstraints
#	position from 1 to 44
#%endblock GeometryConstraints
BandLinesScale   pi/a
%block BandLines
 1   0.00000000  0.00000000  0.00000000
50   0.00000000  0.07809418  0.00000000
50   0.04509075  0.07809242  0.00000000
20   0.00000000  0.00000000  0.00000000
%endblock BandLines
************************** End of input data file *****************************

reinit: -----------------------------------------------------------------------
reinit: System Name: GRP_doping
reinit: -----------------------------------------------------------------------
reinit: System Label: GRP_doping                                                  
reinit: -----------------------------------------------------------------------

initatom: Reading input for the pseudopotentials and atomic orbitals ----------
 Species number:            1  Label: N Atomic number:           7
 Species number:            2  Label: C Atomic number:           6
Ground state valence configuration:   2s02  2p03
Reading pseudopotential information in formatted form from N.psf

Valence configuration for pseudopotential generation:
2s( 2.00) rc: 1.48
2p( 3.00) rc: 1.48
3d( 0.00) rc: 1.48
4f( 0.00) rc: 1.48
Ground state valence configuration:   2s02  2p02
Reading pseudopotential information in formatted form from C.psf

Valence configuration for pseudopotential generation:
2s( 2.00) rc: 1.54
2p( 2.00) rc: 1.54
3d( 0.00) rc: 1.54
4f( 0.00) rc: 1.54
For N, standard SIESTA heuristics set lmxkb to 3
 (one more than the basis l, including polarization orbitals).
Use PS.lmax or PS.KBprojectors blocks to override.
For C, standard SIESTA heuristics set lmxkb to 3
 (one more than the basis l, including polarization orbitals).
Use PS.lmax or PS.KBprojectors blocks to override.

<basis_specs>
===============================================================================
N                    Z=   7    Mass=  14.010        Charge= 0.17977+309
Lmxo=1 Lmxkb= 3    BasisType=split      Semic=F
L=0  Nsemic=0  Cnfigmx=2
          n=1  nzeta=2  polorb=0
            splnorm:   0.15000    
               vcte:    0.0000    
               rinn:    0.0000    
                rcs:    0.0000      0.0000    
            lambdas:    1.0000      1.0000    
L=1  Nsemic=0  Cnfigmx=2
          n=1  nzeta=2  polorb=1
            splnorm:   0.15000    
               vcte:    0.0000    
               rinn:    0.0000    
                rcs:    0.0000      0.0000    
            lambdas:    1.0000      1.0000    
-------------------------------------------------------------------------------
L=0  Nkbl=1  erefs: 0.17977+309
L=1  Nkbl=1  erefs: 0.17977+309
L=2  Nkbl=1  erefs: 0.17977+309
L=3  Nkbl=1  erefs: 0.17977+309
===============================================================================
</basis_specs>

atom: Called for N                     (Z =   7)

read_vps: Pseudopotential generation method:
read_vps: ATM3      Troullier-Martins                       
Total valence charge:    5.00000

read_vps: Pseudopotential includes a core correction:
read_vps: Pseudo-core for xc-correction

xc_check: Exchange-correlation functional:
xc_check: GGA Perdew, Burke & Ernzerhof 1996
V l=0 = -2*Zval/r beyond r=  1.4606
V l=1 = -2*Zval/r beyond r=  1.4606
V l=2 = -2*Zval/r beyond r=  1.4606
V l=3 = -2*Zval/r beyond r=  1.4606
All V_l potentials equal beyond r=  1.4606
This should be close to max(r_c) in ps generation
All pots = -2*Zval/r beyond r=  1.4606

VLOCAL1: 99.0% of the norm of Vloc inside     20.347 Ry
VLOCAL1: 99.9% of the norm of Vloc inside     46.372 Ry
atom: Maximum radius for 4*pi*r*r*local-pseudopot. charge    1.76189
atom: Maximum radius for r*vlocal+2*Zval:    1.53550
GHOST: No ghost state for L =  0
GHOST: No ghost state for L =  1
GHOST: No ghost state for L =  2
GHOST: No ghost state for L =  3

KBgen: Kleinman-Bylander projectors: 
   l= 0   rc=  1.634559   el= -1.363963   Ekb=  5.296955   kbcos=  0.335621
   l= 1   rc=  1.614250   el= -0.521451   Ekb= -5.259161   kbcos= -0.433408
   l= 2   rc=  1.718383   el=  0.001991   Ekb= -1.271464   kbcos= -0.007566
   l= 3   rc=  1.761893   el=  0.003093   Ekb= -0.494769   kbcos= -0.001015

KBgen: Total number of  Kleinman-Bylander projectors:   16
atom: -------------------------------------------------------------------------

atom: SANKEY-TYPE ORBITALS:
atom: Selected multiple-zeta basis: split     

SPLIT: Orbitals with angular momentum L= 0

SPLIT: Basis orbitals for state 2s

SPLIT: PAO cut-off radius determined from an
SPLIT: energy shift=  0.007350 Ry

   izeta = 1
                 lambda =    1.000000
                     rc =    4.071465
                 energy =   -1.356470
                kinetic =    1.176977
    potential(screened) =   -2.533447
       potential(ionic) =   -8.057990

   izeta = 2
                 rmatch =    2.905100
              splitnorm =    0.150000
                 energy =   -1.158343
                kinetic =    1.813009
    potential(screened) =   -2.971352
       potential(ionic) =   -8.901931

SPLIT: Orbitals with angular momentum L= 1

SPLIT: Basis orbitals for state 2p

SPLIT: PAO cut-off radius determined from an
SPLIT: energy shift=  0.007350 Ry

   izeta = 1
                 lambda =    1.000000
                     rc =    4.972977
                 energy =   -0.513884
                kinetic =    3.441732
    potential(screened) =   -3.955616
       potential(ionic) =   -9.287901

   izeta = 2
                 rmatch =    3.054066
              splitnorm =    0.150000
                 energy =   -0.318226
                kinetic =    5.125348
    potential(screened) =   -5.443573
       potential(ionic) =  -11.380999

POLgen: Perturbative polarization orbital with L=  2

POLgen: Polarization orbital for state 2p

   izeta = 1
                     rc =    4.972977
                 energy =    1.607437
                kinetic =    3.268125
    potential(screened) =   -1.660688
       potential(ionic) =   -5.973652
atom: Total number of Sankey-type orbitals: 13

atm_pop: Valence configuration (for local Pseudopot. screening):
 2s( 2.00)                                                            
 2p( 3.00)                                                            
Vna: chval, zval:    5.00000   5.00000

Vna:  Cut-off radius for the neutral-atom potential:   4.972977
comcore: Pseudo-core radius Rcore=  1.554824

atom: _________________________________________________________________________

<basis_specs>
===============================================================================
C                    Z=   6    Mass=  12.010        Charge= 0.17977+309
Lmxo=1 Lmxkb= 3    BasisType=split      Semic=F
L=0  Nsemic=0  Cnfigmx=2
          n=1  nzeta=2  polorb=0
            splnorm:   0.15000    
               vcte:    0.0000    
               rinn:    0.0000    
                rcs:    0.0000      0.0000    
            lambdas:    1.0000      1.0000    
L=1  Nsemic=0  Cnfigmx=2
          n=1  nzeta=2  polorb=1
            splnorm:   0.15000    
               vcte:    0.0000    
               rinn:    0.0000    
                rcs:    0.0000      0.0000    
            lambdas:    1.0000      1.0000    
-------------------------------------------------------------------------------
L=0  Nkbl=1  erefs: 0.17977+309
L=1  Nkbl=1  erefs: 0.17977+309
L=2  Nkbl=1  erefs: 0.17977+309
L=3  Nkbl=1  erefs: 0.17977+309
===============================================================================
</basis_specs>

atom: Called for C                     (Z =   6)

read_vps: Pseudopotential generation method:
read_vps: ATM3      Troullier-Martins                       
Total valence charge:    4.00000

read_vps: Pseudopotential includes a core correction:
read_vps: Pseudo-core for xc-correction

xc_check: Exchange-correlation functional:
xc_check: GGA Perdew, Burke & Ernzerhof 1996
V l=0 = -2*Zval/r beyond r=  1.5227
V l=1 = -2*Zval/r beyond r=  1.5227
V l=2 = -2*Zval/r beyond r=  1.5227
V l=3 = -2*Zval/r beyond r=  1.5038
All V_l potentials equal beyond r=  1.5227
This should be close to max(r_c) in ps generation
All pots = -2*Zval/r beyond r=  1.5227

VLOCAL1: 99.0% of the norm of Vloc inside     18.722 Ry
VLOCAL1: 99.9% of the norm of Vloc inside     42.668 Ry
atom: Maximum radius for 4*pi*r*r*local-pseudopot. charge    1.83678
atom: Maximum radius for r*vlocal+2*Zval:    1.58088
GHOST: No ghost state for L =  0
GHOST: No ghost state for L =  1
GHOST: No ghost state for L =  2
GHOST: No ghost state for L =  3

KBgen: Kleinman-Bylander projectors: 
   l= 0   rc=  1.704034   el= -1.009801   Ekb=  5.335044   kbcos=  0.316824
   l= 1   rc=  1.704034   el= -0.388707   Ekb= -3.785862   kbcos= -0.366464
   l= 2   rc=  1.791422   el=  0.001971   Ekb= -0.970471   kbcos= -0.009212
   l= 3   rc=  1.859892   el=  0.003065   Ekb= -0.399525   kbcos= -0.001223

KBgen: Total number of  Kleinman-Bylander projectors:   16
atom: -------------------------------------------------------------------------

atom: SANKEY-TYPE ORBITALS:
atom: Selected multiple-zeta basis: split     

SPLIT: Orbitals with angular momentum L= 0

SPLIT: Basis orbitals for state 2s

SPLIT: PAO cut-off radius determined from an
SPLIT: energy shift=  0.007350 Ry

   izeta = 1
                 lambda =    1.000000
                     rc =    4.632753
                 energy =   -1.002270
                kinetic =    0.855760
    potential(screened) =   -1.858031
       potential(ionic) =   -5.417575

   izeta = 2
                 rmatch =    3.431921
              splitnorm =    0.150000
                 energy =   -0.867111
                kinetic =    1.300804
    potential(screened) =   -2.167915
       potential(ionic) =   -5.962684

SPLIT: Orbitals with angular momentum L= 1

SPLIT: Basis orbitals for state 2p

SPLIT: PAO cut-off radius determined from an
SPLIT: energy shift=  0.007350 Ry

   izeta = 1
                 lambda =    1.000000
                     rc =    5.658549
                 energy =   -0.381140
                kinetic =    2.399701
    potential(screened) =   -2.780841
       potential(ionic) =   -6.206085

   izeta = 2
                 rmatch =    3.653288
              splitnorm =    0.150000
                 energy =   -0.249149
                kinetic =    3.542762
    potential(screened) =   -3.791911
       potential(ionic) =   -7.581078

POLgen: Perturbative polarization orbital with L=  2

POLgen: Polarization orbital for state 2p

   izeta = 1
                     rc =    5.658549
                 energy =    1.109913
                kinetic =    2.304789
    potential(screened) =   -1.194876
       potential(ionic) =   -4.013592
atom: Total number of Sankey-type orbitals: 13

atm_pop: Valence configuration (for local Pseudopot. screening):
 2s( 2.00)                                                            
 2p( 2.00)                                                            
Vna: chval, zval:    4.00000   4.00000

Vna:  Cut-off radius for the neutral-atom potential:   5.658549
comcore: Pseudo-core radius Rcore=  1.791422

atom: _________________________________________________________________________

prinput: Basis input ----------------------------------------------------------

PAO.BasisType split     

%block ChemicalSpeciesLabel
    1    7 N                       # Species index, atomic number, species label
    2    6 C                       # Species index, atomic number, species label
%endblock ChemicalSpeciesLabel

%block PAO.Basis                 # Define Basis set
N                     2                    # Species label, number of l-shells
 n=2   0   2                         # n, l, Nzeta 
   4.071      2.905   
   1.000      1.000   
 n=2   1   2 P   1                   # n, l, Nzeta, Polarization, NzetaPol
   4.973      3.054   
   1.000      1.000   
C                     2                    # Species label, number of l-shells
 n=2   0   2                         # n, l, Nzeta 
   4.633      3.432   
   1.000      1.000   
 n=2   1   2 P   1                   # n, l, Nzeta, Polarization, NzetaPol
   5.659      3.653   
   1.000      1.000   
%endblock PAO.Basis

prinput: ----------------------------------------------------------------------

coor:   Atomic-coordinates input format  =     Fractional

siesta: Atomic coordinates (Bohr) and species
siesta:     -0.02582   2.59549   0.00000  1        1
siesta:     -0.02582   5.28395   0.00000  1        2
siesta:     -2.35420  38.89134   0.00000  1        3
siesta:     -2.35420  41.57980   0.00000  1        4
siesta:      2.30256  38.89134   0.00000  1        5
siesta:      2.30256  41.57980   0.00000  1        6
siesta:      2.30256   6.62836   0.00000  1        7
siesta:      2.30256   9.31683   0.00000  1        8
siesta:     -2.35420   6.62836   0.00000  1        9
siesta:     -2.35420   9.31683   0.00000  1       10
siesta:     -0.02582  10.66124   0.00000  1       11
siesta:     -0.02582  13.34970   0.00000  1       12
siesta:     -2.35420  14.69411   0.00000  1       13
siesta:     -0.02582  18.72698   0.00000  1       14
siesta:     -0.02582  21.41544   0.00000  1       15
siesta:      2.30256  22.75985   0.00000  1       16
siesta:      2.30256  25.44831   0.00000  1       17
siesta:     -2.35420  22.75985   0.00000  1       18
siesta:     -2.35420  25.44831   0.00000  1       19
siesta:     -0.02582  26.79272   0.00000  1       20
siesta:     -0.02582  29.48119   0.00000  1       21
siesta:      2.30256  33.51406   0.00000  1       22
siesta:     -0.02582  34.85847   0.00000  1       23
siesta:     -0.02582  37.54693   0.00000  1       24
siesta:     -0.02582  42.92421   0.00000  1       25
siesta:     -0.02582  45.61267   0.00000  1       26
siesta:      4.63094  34.85847   0.00000  2       27
siesta:      4.63094  37.54693   0.00000  2       28
siesta:      6.95932  30.82560   0.00000  2       29
siesta:      6.95932  33.51406   0.00000  2       30
siesta:      9.28770  26.79272   0.00000  2       31
siesta:      9.28770  29.48119   0.00000  2       32
siesta:     -4.68258  34.85847   0.00000  2       33
siesta:     -4.68258  37.54693   0.00000  2       34
siesta:      4.63094  10.66124   0.00000  2       35
siesta:      4.63094  13.34970   0.00000  2       36
siesta:      6.95932  14.69411   0.00000  2       37
siesta:      6.95932  17.38257   0.00000  2       38
siesta:      9.28770  18.72698   0.00000  2       39
siesta:      9.28770  21.41544   0.00000  2       40
siesta:     11.61608  22.75985   0.00000  2       41
siesta:     11.61608  25.44831   0.00000  2       42
siesta:      2.30256  14.69411   0.00000  2       43
siesta:      2.30256  17.38257   0.00000  2       44
siesta:      4.63094  18.72698   0.00000  2       45
siesta:      4.63094  21.41544   0.00000  2       46
siesta:      6.95932  22.75985   0.00000  2       47
siesta:      6.95932  25.44831   0.00000  2       48
siesta:     -4.68258  10.66124   0.00000  2       49
siesta:     -4.68258  13.34970   0.00000  2       50
siesta:     -2.35420  17.38257   0.00000  2       51
siesta:     -7.01096  14.69411   0.00000  2       52
siesta:     -7.01096  17.38257   0.00000  2       53
siesta:     -4.68258  18.72698   0.00000  2       54
siesta:     -4.68258  21.41544   0.00000  2       55
siesta:     -9.33934  18.72698   0.00000  2       56
siesta:     -9.33934  21.41544   0.00000  2       57
siesta:     -7.01096  22.75985   0.00000  2       58
siesta:     -7.01096  25.44831   0.00000  2       59
siesta:    -11.66772  22.75985   0.00000  2       60
siesta:    -11.66772  25.44831   0.00000  2       61
siesta:     -9.33934  26.79272   0.00000  2       62
siesta:     -9.33934  29.48119   0.00000  2       63
siesta:      4.63094  26.79272   0.00000  2       64
siesta:      4.63094  29.48119   0.00000  2       65
siesta:     -4.68258  26.79272   0.00000  2       66
siesta:     -4.68258  29.48119   0.00000  2       67
siesta:      2.30256  30.82560   0.00000  2       68
siesta:     -2.35420  30.82560   0.00000  2       69
siesta:     -2.35420  33.51406   0.00000  2       70
siesta:     -7.01096  30.82560   0.00000  2       71
siesta:     -7.01096  33.51406   0.00000  2       72

siesta: System type = slab      

initatomlists: Number of atoms, orbitals, and projectors:     72   936  1152

siesta: ******************** Simulation parameters ****************************
siesta:
siesta: The following are some of the parameters of the simulation.
siesta: A complete list of the parameters used, including default values,
siesta: can be found in file out.fdf
siesta:
redata: Non-Collinear-spin run           =     F
redata: SpinPolarized (Up/Down) run      =     F
redata: Number of spin components        =     1
redata: Long output                      =     F
redata: Number of Atomic Species         =        2
redata: Charge density info will appear in .RHO file
redata: Write Mulliken Pop.              =     NO
redata: Mesh Cutoff                      =   200.0000  Ry
redata: Net charge of the system         =     0.0000 |e|
redata: Max. number of SCF Iter          =      500
redata: SCF convergence failure will abort job
redata: Performing Pulay mixing using    =    10 iterations
redata: Mix DM in first SCF step ?       =     F
redata: Write Pulay info on disk?        =     F
redata: Discard 1st Pulay DM after  kick =     F
redata: New DM Mixing Weight             =     0.0500
redata: New DM Occupancy tolerance       = 0.000000000001
redata: No kicks to SCF
redata: DM Mixing Weight for Kicks       =     0.5000
redata: DM Tolerance for SCF             =     0.000100
redata: Require Energy convergence for SCF =     F
redata: DM Energy tolerance for SCF      =     0.000100 eV
redata: Require Harris convergence for SCF =     F
redata: DM Harris energy tolerance for SCF =     0.000100 eV
redata: Using Saved Data (generic)   =     F
redata: Use continuation files for DM    =     T
redata: Neglect nonoverlap interactions  =     F
redata: Method of Calculation            =     Diagonalization
redata: Divide and Conquer               =     T
redata: Electronic Temperature           =     0.0019  Ry
redata: Fix the spin of the system       =     F
redata: Dynamics option                  =     Verlet MD run
redata: Initial MD time step             =        1
redata:   Final MD time step             =        1
redata: Length of MD time step           =     1.0000  fs
redata: Initial Temperature of MD run    =     0.0000  K
redata: Perform a MD quench              =     F
redata: ***********************************************************************
Total number of electrons:   314.000000
Total ionic charge:   314.000000

* ProcessorY, Blocksize:    2  24

k-point displ. along   1 input, could be:     0.50    0.00
k-point displ. along   2 input, could be:     0.50    0.00
 Kpoints in:          231 . Kpoints trimmed:          231

siesta: k-grid: Number of k-points =   231
siesta: k-grid: Cutoff (effective) =     5.000 Ang
siesta: k-grid: Supercell and displacements
siesta: k-grid:   21   0   0      0.500
siesta: k-grid:    0  21   0      0.500
siesta: k-grid:    0   0   1      0.000
Naive supercell factors:     2    2    2

superc: Internal auxiliary supercell:     2 x     2 x     2  =       8
superc: Number of atoms, orbitals, and projectors:    576   7488   9216

* Maximum dynamic memory allocated =     4 MB

siesta:                 ==============================
                            Begin MD step =      1
                        ==============================

superc: Internal auxiliary supercell:     2 x     2 x     2  =       8
superc: Number of atoms, orbitals, and projectors:    576   7488   9216

outcell: Unit cell vectors (Ang):
       12.804619    7.392750    0.000000
        0.000000   14.785500    0.000000
        0.000000    0.000000   10.000000

outcell: Cell vector modules (Ang)   :   14.785500   14.785500   10.000000
outcell: Cell angles (23,13,12) (deg):     90.0000     90.0000     60.0000
outcell: Cell volume (Ang**3)        :   1893.2269
New_DM. Step:     1
Initializing Density Matrix...

InitMesh: MESH =   120 x   120 x    90 =     1296000
InitMesh: Mesh cutoff (required, used) =   200.000   223.865 Ry

* Maximum dynamic memory allocated =   178 MB

stepf: Fermi-Dirac step function

siesta: Program's energy decomposition (eV):
siesta: Ebs     =     -6501.484705
siesta: Eions   =     22582.429020
siesta: Ena     =      5031.693872
siesta: Ekin    =      8560.167659
siesta: Enl     =      -198.653674
siesta: DEna    =        -0.000015
siesta: DUscf   =         0.000000
siesta: DUext   =         0.000000
siesta: Exc     =     -4855.602990
siesta: eta*DQ  =         0.000000
siesta: Emadel  =         0.000000
siesta: Emeta   =         0.000000
siesta: Emolmec =         0.000000
siesta: Ekinion =         0.000000
siesta: Eharris =    -13510.352789
siesta: Etot    =    -14044.824167
siesta: FreeEng =    -14044.824167

siesta: iscf   Eharris(eV)      E_KS(eV)   FreeEng(eV)   dDmax  Ef(eV)
siesta:    1   -13510.3528   -14044.8242   -14044.8242  5.1822 -6.3592
timer: Routine,Calls,Time,% = IterSCF        1    4258.169  99.73
elaps: Routine,Calls,Wall,% = IterSCF        1     532.898  99.73
siesta:    2   -16026.4609   -13082.1736   -13082.1800 14.4063 -3.3397
siesta:    3   -13436.9667   -13874.6621   -13874.6921  3.0326 -5.2367
siesta:    4   -13409.4595   -13643.6173   -13643.6772  1.1950 -4.2609
siesta:    5   -13384.5100   -13553.3725   -13553.4476  0.8198 -4.2180
siesta:    6   -13382.4467   -13525.6420   -13525.6823  0.7844 -3.9478
siesta:    7   -13380.4448   -13514.4245   -13514.4562  0.6995 -4.0185
siesta:    8   -13378.1891   -13458.4492   -13458.4786  0.5523 -3.9486
siesta:    9   -13378.3755   -13411.1487   -13411.2052  0.3748 -3.8504
siesta:   10   -13377.8344   -13396.0141   -13396.0582  0.2326 -3.9067
siesta:   11   -13377.3963   -13383.6720   -13383.7270  0.2638 -3.9103
siesta:   12   -13377.1358   -13368.7435   -13368.7927  0.1272 -3.9406
siesta:   13   -13377.0782   -13365.3391   -13365.3854  0.2208 -3.9975
siesta:   14   -13376.8136   -13366.7819   -13366.8227  0.0477 -4.0275
siesta:   15   -13376.7879   -13367.2303   -13367.2790  0.0354 -4.0208
siesta:   16   -13376.7642   -13369.0053   -13369.0554  0.0275 -4.0061
siesta:   17   -13376.7611   -13371.2637   -13371.3135  0.0304 -3.9827
siesta:   18   -13376.7625   -13372.3511   -13372.3983  0.0156 -3.9771
siesta:   19   -13376.7543   -13373.7795   -13373.8272  0.0184 -3.9808
siesta:   20   -13376.7525   -13374.8867   -13374.9347  0.0111 -3.9871
siesta:   21   -13376.7507   -13375.5929   -13375.6412  0.0081 -3.9841
siesta:   22   -13376.7506   -13375.7833   -13375.8315  0.0065 -3.9828
siesta:   23   -13376.7500   -13376.0157   -13376.0637  0.0035 -3.9825
siesta:   24   -13376.7497   -13376.1639   -13376.2120  0.0018 -3.9822
siesta:   25   -13376.7497   -13376.2968   -13376.3449  0.0015 -3.9821
siesta:   26   -13376.7497   -13376.5442   -13376.5923  0.0013 -3.9822
siesta:   27   -13376.7497   -13376.5661   -13376.6142  0.0012 -3.9825
siesta:   28   -13376.7497   -13376.6412   -13376.6893  0.0008 -3.9828
siesta:   29   -13376.7497   -13376.6765   -13376.7246  0.0005 -3.9827
siesta:   30   -13376.7497   -13376.7119   -13376.7600  0.0003 -3.9828
siesta:   31   -13376.7497   -13376.7299   -13376.7779  0.0001 -3.9833
siesta:   32   -13376.7497   -13376.7334   -13376.7815  0.0001 -3.9834

siesta: E_KS(eV) =           -13376.7393

siesta: E_KS - E_eggbox =    -13376.7393

siesta: Atomic forces (eV/Ang):
----------------------------------------
   Tot   -0.121456    0.013551    0.000000
----------------------------------------
   Max  784.701103
   Res  204.831411    sqrt( Sum f_i^2 / 3N )
----------------------------------------
   Max  784.701103    constrained

Stress-tensor-Voigt (kbar):     -608.15    -3753.45       -0.16       -9.29        0.00        0.00
(Free)E + p*V (eV/cell)   -11658.7698
Target enthalpy (eV/cell)   -13376.7874

siesta: Stress tensor (static) (eV/Ang**3):
        -0.379574   -0.005796    0.000000
        -0.005796   -2.342693    0.000000
         0.000000    0.000000   -0.000098

siesta: Pressure (static):       1453.91840620  kBar

siesta: Stress tensor (total) (eV/Ang**3):
        -0.379574   -0.005796    0.000000
        -0.005796   -2.342693    0.000000
         0.000000    0.000000   -0.000098

siesta: Pressure (total):       1453.91840620  kBar

siesta: Temp_ion =       0.000 K

* Maximum dynamic memory allocated =   194 MB
Computing bands...

siesta: Program's energy decomposition (eV):
siesta: Ebs     =     -5370.965889
siesta: Eions   =     22582.429020
siesta: Ena     =      5031.693872
siesta: Ekin    =     12000.024098
siesta: Enl     =     -2054.402069
siesta: DEna    =      -840.297602
siesta: DUscf   =       110.225941
siesta: DUext   =         0.000000
siesta: Exc     =     -5041.554547
siesta: eta*DQ  =         0.000000
siesta: Emadel  =         0.000000
siesta: Emeta   =         0.000000
siesta: Emolmec =         0.000000
siesta: Ekinion =         0.000000
siesta: Eharris =    -13376.749689
siesta: Etot    =    -13376.739326
siesta: FreeEng =    -13376.787415

siesta: Final energy (eV):
siesta:  Band Struct. =   -5370.965889
siesta:       Kinetic =   12000.024098
siesta:       Hartree =   40513.202783
siesta:    Ext. field =       0.000000
siesta:   Exch.-corr. =   -5041.554547
siesta:  Ion-electron =  -92648.393210
siesta:       Ion-ion =   31799.981551
siesta:       Ekinion =       0.000000
siesta:         Total =  -13376.739326

siesta: Atomic forces (eV/Ang):
siesta:      1   -0.883167  746.971961    0.000000
siesta:      2   -2.990163 -104.778903    0.000000
siesta:      3   -9.620883  113.342487    0.000000
siesta:      4  -21.450079 -755.187497    0.000000
siesta:      5    9.830979  114.605096    0.000000
siesta:      6   13.611121 -666.270874    0.000000
siesta:      7   21.540646  755.110533    0.000000
siesta:      8    9.635365 -113.306126    0.000000
siesta:      9  -13.484878  666.276253    0.000000
siesta:     10   -9.781346 -114.599763    0.000000
siesta:     11    1.556036  759.082872    0.000000
siesta:     12    3.139654 -106.453374    0.000000
siesta:     13   -6.911757  779.507729    0.000000
siesta:     14   -5.924638  784.666655    0.000000
siesta:     15    1.453297    3.768102    0.000000
siesta:     16    0.968117    0.314688    0.000000
siesta:     17    1.334543    0.828666    0.000000
siesta:     18   -1.271280   -0.882284    0.000000
siesta:     19   -0.921486   -0.275674    0.000000
siesta:     20   -1.485919   -3.785640    0.000000
siesta:     21    5.925095 -784.701103    0.000000
siesta:     22    6.961490 -779.417102    0.000000
siesta:     23   -3.217131  106.428873    0.000000
siesta:     24   -1.796740 -759.015453    0.000000
siesta:     25    2.960693  104.751552    0.000000
siesta:     26    0.844493 -746.960031    0.000000
siesta:     27   30.744886    5.467894    0.000000
siesta:     28   16.709715 -562.334202    0.000000
siesta:     29    2.660568    0.239568    0.000000
siesta:     30   -3.241938    1.016036    0.000000
siesta:     31    2.076494    2.122781    0.000000
siesta:     32   -1.225935    0.195579    0.000000
siesta:     33  -28.433884    2.521916    0.000000
siesta:     34  -18.596368 -562.941731    0.000000
siesta:     35   18.584038  562.984088    0.000000
siesta:     36   28.423919   -2.540066    0.000000
siesta:     37   -3.257107   -1.066535    0.000000
siesta:     38    2.633338   -0.313344    0.000000
siesta:     39   -1.301841   -0.276211    0.000000
siesta:     40    2.044686   -2.093214    0.000000
siesta:     41   -0.163563    7.386366    0.000000
siesta:     42   -0.246593   -7.382929    0.000000
siesta:     43   10.352273  687.822328    0.000000
siesta:     44   28.394360   -6.996654    0.000000
siesta:     45   -2.220386    3.776236    0.000000
siesta:     46   -0.184492   -0.274177    0.000000
siesta:     47   -0.582331    0.806725    0.000000
siesta:     48   -0.626608   -0.794610    0.000000
siesta:     49  -16.726064  562.277200    0.000000
siesta:     50  -30.763898   -5.466137    0.000000
siesta:     51  -24.621944   -3.071799    0.000000
siesta:     52    3.240308   -1.035948    0.000000
siesta:     53   -2.646805   -0.241972    0.000000
siesta:     54    1.605461    3.294367    0.000000
siesta:     55    0.306136   -0.543152    0.000000
siesta:     56    1.228463   -0.189535    0.000000
siesta:     57   -2.073643   -2.112556    0.000000
siesta:     58    0.614497    0.802977    0.000000
siesta:     59    0.573710   -0.814268    0.000000
siesta:     60    0.254215    7.386545    0.000000
siesta:     61    0.172360   -7.387837    0.000000
siesta:     62   -2.036709    2.080714    0.000000
siesta:     63    1.304039    0.270453    0.000000
siesta:     64   -0.320112    0.546013    0.000000
siesta:     65   -1.650127   -3.207642    0.000000
siesta:     66    0.177724    0.279806    0.000000
siesta:     67    2.197955   -3.832453    0.000000
siesta:     68   24.615525    3.088640    0.000000
siesta:     69  -28.396832    6.987943    0.000000
siesta:     70  -10.371997 -687.838481    0.000000
siesta:     71   -2.627530    0.309264    0.000000
siesta:     72    3.258513    1.083920    0.000000
siesta: ----------------------------------------
siesta:    Tot   -0.121456    0.013551    0.000000

siesta: Stress tensor (static) (eV/Ang**3):
siesta:    -0.379574   -0.005796    0.000000
siesta:    -0.005796   -2.342693    0.000000
siesta:     0.000000    0.000000   -0.000098

siesta: Cell volume =       1893.226884 Ang**3

siesta: Pressure (static):
siesta:                Solid            Molecule  Units
siesta:           0.00988334          0.16604068  Ry/Bohr**3
siesta:           0.90745468         15.24529065  eV/Ang**3
siesta:        1453.91840620      24425.91247836  kBar
(Free)E+ p_basis*V_orbitals  =      -13349.766851
(Free)Eharris+ p_basis*V_orbitals  =      -13349.783168

siesta: Electric dipole (a.u.)  =    0.000000    0.000000    0.000000
siesta: Electric dipole (Debye) =    0.000000    0.000000    0.000000

* Maximum dynamic memory allocated : Node    0 =   194 MB
* Maximum dynamic memory allocated : Node    1 =    69 MB
* Maximum dynamic memory allocated : Node    2 =    73 MB
* Maximum dynamic memory allocated : Node    3 =   186 MB
* Maximum dynamic memory allocated : Node    4 =   184 MB
* Maximum dynamic memory allocated : Node    5 =    70 MB
* Maximum dynamic memory allocated : Node    6 =    70 MB
* Maximum dynamic memory allocated : Node    7 =   170 MB

* Maximum memory occured during matrixMtoO                    

timer: CPU execution times:
timer:  Routine       Calls   Time/call    Tot.time        %
timer:  siesta            1  134577.775  134577.775   100.00
timer:  Setup             1       3.051       3.051     0.00
timer:  bands             3     271.799     815.397     0.61
timer:  writewave         1       0.018       0.018     0.00
timer:  KSV_init          1       0.000       0.000     0.00
timer:  IterMD            1  133753.453  133753.453    99.39
timer:  hsparse           1       0.234       0.234     0.00
timer:  overlap           1       7.690       7.690     0.01
timer:  IterSCF          32    4174.922  133597.517    99.27
timer:  kinefsm           2       3.948       7.896     0.01
timer:  nlefsm            2      18.409      36.818     0.03
timer:  DHSCF            33      80.642    2661.195     1.98
timer:  DHSCF1            1       0.765       0.765     0.00
timer:  DHSCF2            1      32.532      32.532     0.02
timer:  REORD           266       0.011       2.857     0.00
timer:  POISON           34       2.567      87.275     0.06
timer:  DHSCF3           33      78.723    2597.865     1.93
timer:  rhoofd           33      15.478     510.766     0.38
timer:  cellXC           33       3.503     115.612     0.09
timer:  vmat             33      37.735    1245.241     0.93
timer:  MolMec            2       0.000       0.000     0.00
timer:  diagon           32    4092.890  130972.481    97.32
timer:  c-eigval       7513       6.741   50643.034    37.63
timer:  c-buildHS      7513       0.132     991.622     0.74
timer:  cdiag         14905       6.944  103494.333    76.90
timer:  cdiag1        14905       0.429    6392.385     4.75
timer:  cdiag2        14905       1.919   28598.059    21.25
timer:  cdiag3        14905       3.980   59320.790    44.08
timer:  cdiag4        14905       0.208    3097.311     2.30
timer:  c-eigvec       7392       7.351   54335.782    40.38
timer:  c-buildD       7392       3.621   26768.216    19.89
timer:  DHSCF4            1      28.141      28.141     0.02
timer:  dfscf             1      26.385      26.385     0.02
timer:  overfsm           1       0.396       0.396     0.00
timer:  optical           1       5.129       5.129     0.00
  

elaps: ELAPSED times:
elaps:  Routine       Calls   Time/call    Tot.time        %
elaps:  siesta            1   16840.894   16840.894   100.00
elaps:  Setup             1       0.381       0.381     0.00
elaps:  bands             3      34.027     102.081     0.61
elaps:  writewave         1       0.002       0.002     0.00
elaps:  KSV_init          1       0.000       0.000     0.00
elaps:  IterMD            1   16737.754   16737.754    99.39
elaps:  hsparse           1       0.028       0.028     0.00
elaps:  overlap           1       0.966       0.966     0.01
elaps:  IterSCF          32     522.445   16718.249    99.27
elaps:  kinefsm           2       0.493       0.985     0.01
elaps:  nlefsm            2       2.258       4.517     0.03
elaps:  DHSCF            33      10.201     336.639     2.00
elaps:  DHSCF1            1       0.100       0.100     0.00
elaps:  DHSCF2            1       4.068       4.068     0.02
elaps:  REORD           266       0.001       0.377     0.00
elaps:  POISON           34       0.321      10.924     0.06
elaps:  DHSCF3           33       9.849     325.030     1.93
elaps:  rhoofd           33       4.214     139.060     0.83
elaps:  cellXC           33       0.437      14.436     0.09
elaps:  vmat             33       4.721     155.794     0.93
elaps:  MolMec            2       0.000       0.000     0.00
elaps:  diagon           32     512.175   16389.610    97.32
elaps:  c-eigval       7513       0.843    6336.437    37.63
elaps:  c-buildHS      7513       0.018     132.635     0.79
elaps:  cdiag         14905       0.871   12982.071    77.09
elaps:  cdiag1        14905       0.053     791.986     4.70
elaps:  cdiag2        14905       0.240    3578.382    21.25
elaps:  cdiag3        14905       0.499    7432.404    44.13
elaps:  cdiag4        14905       0.026     389.833     2.31
elaps:  c-eigvec       7392       0.929    6864.674    40.76
elaps:  c-buildD       7392       0.444    3284.291    19.50
elaps:  DHSCF4            1       7.180       7.180     0.04
elaps:  dfscf             1       6.808       6.808     0.04
elaps:  overfsm           1       0.048       0.048     0.00
elaps:  optical           1       0.000       0.000     0.00
  
>> End of run:  20-APR-2016   0:32:20
