Siesta Version:                                        siesta-3.2-pl-3
Architecture  : x86_64-unknown-linux-gnu--unknown
Compiler flags: mpiifort -g -O2 -fPIC -xSSE4.1 -fp-model source -shared-intel 
PARALLEL version

* Running on   12 nodes in parallel
>> Start of run:   4-MAY-2016   0:54:02

                           ***********************       
                           *  WELCOME TO SIESTA  *       
                           ***********************       

reinit: Reading from standard input
************************** Dump of input data file ****************************
#(1) General system descriptors
SystemName            GRP_doping    # Descriptive name of the system
SystemLabel           GRP_doping    # Short name for naming files
%include STRUCT.fdf
%include KPT.fdf
%include BASIS.fdf
#%include TS.fdf # for transiesta calculation
#(4) DFT, Grid, SCF
XC.functional         GGA           # LDA or GGA (default = LDA)
XC.authors            PBE           # CA (Ceperley-Aldr) = PZ
                                    #    (Perdew-Zunger) - LDA - Default
                                    # PW92 (Perdew-Wang-92) - LDA
                                    # PBE (Perdew-Burke-Ernzerhof) - GGA
MeshCutoff            200.000000    Ry      # Default: 50.0 Ry ~ 0.444 Bohr
                                    #         100.0 Ry ~ 0.314 Bohr
MaxSCFIterations      500           # Default: 50
DM.MixingWeight       0.05          # Default: 0.25
DM.NumberPulay        10            # Default: 0
DM.PulayOnFile        F             # SystemLabel.P1, SystemLabel.P2
DM.Tolerance          1.d-4         # Default: 1.d-4
DM.UseSaveDM          .true.        # because of the bug
SCFMustConverge       .true.
NeglNonOverlapInt     F             # Default: F
#(5) Eigenvalue problem: order-N or diagonalization
SolutionMethod        Diagon        # or Transiesta
ElectronicTemperature 300.0 K       # Default: 300.0 K
#(6) Molecular dynamics and relaxations
#MD.TypeOfRun          CG            # Type of dynamics:
#MD.VariableCell       F
#MD.NumCGsteps         0           # 0 for single-point / 100 for gopt
#MD.MaxCGDispl         0.2 Bohr      # Default: 0.2 Bohr
#MD.MaxForceTol        0.02 eV/Ang   # Default: 0.04 eV/Ang
#MD.MaxStressTol       1.0 GPa       # Default: 1.0 GPa
# Geometry Constraints
#%block GeometryConstraints
#	position from 1 to 44
#%endblock GeometryConstraints
BandLinesScale   pi/a
%block BandLines
 1   0.00000000  0.00000000  0.00000000
50   0.00000000  0.07809418  0.00000000
50   0.04509075  0.07809242  0.00000000
20   0.00000000  0.00000000  0.00000000
%endblock BandLines
************************** End of input data file *****************************

reinit: -----------------------------------------------------------------------
reinit: System Name: GRP_doping
reinit: -----------------------------------------------------------------------
reinit: System Label: GRP_doping                                                  
reinit: -----------------------------------------------------------------------

initatom: Reading input for the pseudopotentials and atomic orbitals ----------
 Species number:            1  Label: B Atomic number:           5
 Species number:            2  Label: C Atomic number:           6
Ground state valence configuration:   2s02  2p01
Reading pseudopotential information in formatted form from B.psf

Valence configuration for pseudopotential generation:
2s( 2.00) rc: 1.74
2p( 1.00) rc: 1.74
3d( 0.00) rc: 1.74
4f( 0.00) rc: 1.74
Ground state valence configuration:   2s02  2p02
Reading pseudopotential information in formatted form from C.psf

Valence configuration for pseudopotential generation:
2s( 2.00) rc: 1.54
2p( 2.00) rc: 1.54
3d( 0.00) rc: 1.54
4f( 0.00) rc: 1.54
For B, standard SIESTA heuristics set lmxkb to 3
 (one more than the basis l, including polarization orbitals).
Use PS.lmax or PS.KBprojectors blocks to override.
For C, standard SIESTA heuristics set lmxkb to 3
 (one more than the basis l, including polarization orbitals).
Use PS.lmax or PS.KBprojectors blocks to override.

<basis_specs>
===============================================================================
B                    Z=   5    Mass=  10.810        Charge= 0.17977+309
Lmxo=1 Lmxkb= 3    BasisType=split      Semic=F
L=0  Nsemic=0  Cnfigmx=2
          n=1  nzeta=2  polorb=0
            splnorm:   0.15000    
               vcte:    0.0000    
               rinn:    0.0000    
                rcs:    0.0000      0.0000    
            lambdas:    1.0000      1.0000    
L=1  Nsemic=0  Cnfigmx=2
          n=1  nzeta=2  polorb=1
            splnorm:   0.15000    
               vcte:    0.0000    
               rinn:    0.0000    
                rcs:    0.0000      0.0000    
            lambdas:    1.0000      1.0000    
-------------------------------------------------------------------------------
L=0  Nkbl=1  erefs: 0.17977+309
L=1  Nkbl=1  erefs: 0.17977+309
L=2  Nkbl=1  erefs: 0.17977+309
L=3  Nkbl=1  erefs: 0.17977+309
===============================================================================
</basis_specs>

atom: Called for B                     (Z =   5)

read_vps: Pseudopotential generation method:
read_vps: ATM3      Troullier-Martins                       
Total valence charge:    3.00000

read_vps: Pseudopotential includes a core correction:
read_vps: Pseudo-core for xc-correction

xc_check: Exchange-correlation functional:
xc_check: GGA Perdew, Burke & Ernzerhof 1996
V l=0 = -2*Zval/r beyond r=  1.7165
V l=1 = -2*Zval/r beyond r=  1.7165
V l=2 = -2*Zval/r beyond r=  1.7165
V l=3 = -2*Zval/r beyond r=  1.6951
All V_l potentials equal beyond r=  1.7165
This should be close to max(r_c) in ps generation
All pots = -2*Zval/r beyond r=  1.7165

VLOCAL1: 99.0% of the norm of Vloc inside     14.733 Ry
VLOCAL1: 99.9% of the norm of Vloc inside     33.577 Ry
atom: Maximum radius for 4*pi*r*r*local-pseudopot. charge    2.04484
atom: Maximum radius for r*vlocal+2*Zval:    1.75994
GHOST: No ghost state for L =  0
GHOST: No ghost state for L =  1
GHOST: No ghost state for L =  2
GHOST: No ghost state for L =  3

KBgen: Kleinman-Bylander projectors: 
   l= 0   rc=  1.897051   el= -0.693730   Ekb=  4.595746   kbcos=  0.286105
   l= 1   rc=  1.920920   el= -0.265236   Ekb= -2.350715   kbcos= -0.315747
   l= 2   rc=  2.044840   el=  0.002055   Ekb= -0.690767   kbcos= -0.013822
   l= 3   rc=  2.149707   el=  0.003188   Ekb= -0.315358   kbcos= -0.002055

KBgen: Total number of  Kleinman-Bylander projectors:   16
atom: -------------------------------------------------------------------------

atom: SANKEY-TYPE ORBITALS:
atom: Selected multiple-zeta basis: split     

SPLIT: Orbitals with angular momentum L= 0

SPLIT: Basis orbitals for state 2s

SPLIT: PAO cut-off radius determined from an
SPLIT: energy shift=  0.007350 Ry

   izeta = 1
                 lambda =    1.000000
                     rc =    5.422032
                 energy =   -0.686029
                kinetic =    0.576707
    potential(screened) =   -1.262736
       potential(ionic) =   -3.271094

   izeta = 2
                 rmatch =    4.222573
              splitnorm =    0.150000
                 energy =   -0.602132
                kinetic =    0.858975
    potential(screened) =   -1.461107
       potential(ionic) =   -3.582536

SPLIT: Orbitals with angular momentum L= 1

SPLIT: Basis orbitals for state 2p

SPLIT: PAO cut-off radius determined from an
SPLIT: energy shift=  0.007350 Ry

   izeta = 1
                 lambda =    1.000000
                     rc =    6.790259
                 energy =   -0.258578
                kinetic =    1.481412
    potential(screened) =   -1.739989
       potential(ionic) =   -3.657461

   izeta = 2
                 rmatch =    4.608740
              splitnorm =    0.150000
                 energy =   -0.173757
                kinetic =    2.186690
    potential(screened) =   -2.360447
       potential(ionic) =   -4.464260

POLgen: Perturbative polarization orbital with L=  2

POLgen: Polarization orbital for state 2p

   izeta = 1
                     rc =    6.790259
                 energy =    0.684082
                kinetic =    1.471481
    potential(screened) =   -0.787399
       potential(ionic) =   -2.406985
atom: Total number of Sankey-type orbitals: 13

atm_pop: Valence configuration (for local Pseudopot. screening):
 2s( 2.00)                                                            
 2p( 1.00)                                                            
Vna: chval, zval:    3.00000   3.00000

Vna:  Cut-off radius for the neutral-atom potential:   6.790259
comcore: Pseudo-core radius Rcore=  2.122997

atom: _________________________________________________________________________

<basis_specs>
===============================================================================
C                    Z=   6    Mass=  12.010        Charge= 0.17977+309
Lmxo=1 Lmxkb= 3    BasisType=split      Semic=F
L=0  Nsemic=0  Cnfigmx=2
          n=1  nzeta=2  polorb=0
            splnorm:   0.15000    
               vcte:    0.0000    
               rinn:    0.0000    
                rcs:    0.0000      0.0000    
            lambdas:    1.0000      1.0000    
L=1  Nsemic=0  Cnfigmx=2
          n=1  nzeta=2  polorb=1
            splnorm:   0.15000    
               vcte:    0.0000    
               rinn:    0.0000    
                rcs:    0.0000      0.0000    
            lambdas:    1.0000      1.0000    
-------------------------------------------------------------------------------
L=0  Nkbl=1  erefs: 0.17977+309
L=1  Nkbl=1  erefs: 0.17977+309
L=2  Nkbl=1  erefs: 0.17977+309
L=3  Nkbl=1  erefs: 0.17977+309
===============================================================================
</basis_specs>

atom: Called for C                     (Z =   6)

read_vps: Pseudopotential generation method:
read_vps: ATM3      Troullier-Martins                       
Total valence charge:    4.00000

read_vps: Pseudopotential includes a core correction:
read_vps: Pseudo-core for xc-correction

xc_check: Exchange-correlation functional:
xc_check: GGA Perdew, Burke & Ernzerhof 1996
V l=0 = -2*Zval/r beyond r=  1.5227
V l=1 = -2*Zval/r beyond r=  1.5227
V l=2 = -2*Zval/r beyond r=  1.5227
V l=3 = -2*Zval/r beyond r=  1.5038
All V_l potentials equal beyond r=  1.5227
This should be close to max(r_c) in ps generation
All pots = -2*Zval/r beyond r=  1.5227

VLOCAL1: 99.0% of the norm of Vloc inside     18.722 Ry
VLOCAL1: 99.9% of the norm of Vloc inside     42.668 Ry
atom: Maximum radius for 4*pi*r*r*local-pseudopot. charge    1.83678
atom: Maximum radius for r*vlocal+2*Zval:    1.58088
GHOST: No ghost state for L =  0
GHOST: No ghost state for L =  1
GHOST: No ghost state for L =  2
GHOST: No ghost state for L =  3

KBgen: Kleinman-Bylander projectors: 
   l= 0   rc=  1.704034   el= -1.009801   Ekb=  5.335044   kbcos=  0.316824
   l= 1   rc=  1.704034   el= -0.388707   Ekb= -3.785862   kbcos= -0.366464
   l= 2   rc=  1.791422   el=  0.001971   Ekb= -0.970471   kbcos= -0.009212
   l= 3   rc=  1.859892   el=  0.003065   Ekb= -0.399525   kbcos= -0.001223

KBgen: Total number of  Kleinman-Bylander projectors:   16
atom: -------------------------------------------------------------------------

atom: SANKEY-TYPE ORBITALS:
atom: Selected multiple-zeta basis: split     

SPLIT: Orbitals with angular momentum L= 0

SPLIT: Basis orbitals for state 2s

SPLIT: PAO cut-off radius determined from an
SPLIT: energy shift=  0.007350 Ry

   izeta = 1
                 lambda =    1.000000
                     rc =    4.632753
                 energy =   -1.002270
                kinetic =    0.855760
    potential(screened) =   -1.858031
       potential(ionic) =   -5.417575

   izeta = 2
                 rmatch =    3.431921
              splitnorm =    0.150000
                 energy =   -0.867111
                kinetic =    1.300804
    potential(screened) =   -2.167915
       potential(ionic) =   -5.962684

SPLIT: Orbitals with angular momentum L= 1

SPLIT: Basis orbitals for state 2p

SPLIT: PAO cut-off radius determined from an
SPLIT: energy shift=  0.007350 Ry

   izeta = 1
                 lambda =    1.000000
                     rc =    5.658549
                 energy =   -0.381140
                kinetic =    2.399701
    potential(screened) =   -2.780841
       potential(ionic) =   -6.206085

   izeta = 2
                 rmatch =    3.653288
              splitnorm =    0.150000
                 energy =   -0.249149
                kinetic =    3.542762
    potential(screened) =   -3.791911
       potential(ionic) =   -7.581078

POLgen: Perturbative polarization orbital with L=  2

POLgen: Polarization orbital for state 2p

   izeta = 1
                     rc =    5.658549
                 energy =    1.109913
                kinetic =    2.304789
    potential(screened) =   -1.194876
       potential(ionic) =   -4.013592
atom: Total number of Sankey-type orbitals: 13

atm_pop: Valence configuration (for local Pseudopot. screening):
 2s( 2.00)                                                            
 2p( 2.00)                                                            
Vna: chval, zval:    4.00000   4.00000

Vna:  Cut-off radius for the neutral-atom potential:   5.658549
comcore: Pseudo-core radius Rcore=  1.791422

atom: _________________________________________________________________________

prinput: Basis input ----------------------------------------------------------

PAO.BasisType split     

%block ChemicalSpeciesLabel
    1    5 B                       # Species index, atomic number, species label
    2    6 C                       # Species index, atomic number, species label
%endblock ChemicalSpeciesLabel

%block PAO.Basis                 # Define Basis set
B                     2                    # Species label, number of l-shells
 n=2   0   2                         # n, l, Nzeta 
   5.422      4.223   
   1.000      1.000   
 n=2   1   2 P   1                   # n, l, Nzeta, Polarization, NzetaPol
   6.790      4.609   
   1.000      1.000   
C                     2                    # Species label, number of l-shells
 n=2   0   2                         # n, l, Nzeta 
   4.633      3.432   
   1.000      1.000   
 n=2   1   2 P   1                   # n, l, Nzeta, Polarization, NzetaPol
   5.659      3.653   
   1.000      1.000   
%endblock PAO.Basis

prinput: ----------------------------------------------------------------------

coor:   Atomic-coordinates input format  =     Fractional

siesta: Atomic coordinates (Bohr) and species
siesta:      2.30256   6.62836   0.00000  1        1
siesta:     -0.02582  13.34970   0.00000  1        2
siesta:      4.63094  21.41544   0.00000  1        3
siesta:     -4.68258  21.41544   0.00000  1        4
siesta:    -11.66772  25.44831   0.00000  1        5
siesta:      2.30256  30.82560   0.00000  1        6
siesta:     -2.35420  30.82560   0.00000  1        7
siesta:     -0.02582  42.92421   0.00000  1        8
siesta:     -0.02582   2.59549   0.00000  2        9
siesta:     -0.02582   5.28395   0.00000  2       10
siesta:     -2.35420  38.89134   0.00000  2       11
siesta:     -2.35420  41.57980   0.00000  2       12
siesta:      2.30256  38.89134   0.00000  2       13
siesta:      2.30256  41.57980   0.00000  2       14
siesta:      4.63094  34.85847   0.00000  2       15
siesta:      4.63094  37.54693   0.00000  2       16
siesta:      6.95932  30.82560   0.00000  2       17
siesta:      6.95932  33.51406   0.00000  2       18
siesta:      9.28770  26.79272   0.00000  2       19
siesta:      9.28770  29.48119   0.00000  2       20
siesta:     -4.68258  34.85847   0.00000  2       21
siesta:     -4.68258  37.54693   0.00000  2       22
siesta:      2.30256   9.31683   0.00000  2       23
siesta:      4.63094  10.66124   0.00000  2       24
siesta:      4.63094  13.34970   0.00000  2       25
siesta:      6.95932  14.69411   0.00000  2       26
siesta:      6.95932  17.38257   0.00000  2       27
siesta:      9.28770  18.72698   0.00000  2       28
siesta:      9.28770  21.41544   0.00000  2       29
siesta:     11.61608  22.75985   0.00000  2       30
siesta:     11.61608  25.44831   0.00000  2       31
siesta:     -2.35420   6.62836   0.00000  2       32
siesta:     -2.35420   9.31683   0.00000  2       33
siesta:     -0.02582  10.66124   0.00000  2       34
siesta:      2.30256  14.69411   0.00000  2       35
siesta:      2.30256  17.38257   0.00000  2       36
siesta:      4.63094  18.72698   0.00000  2       37
siesta:      6.95932  22.75985   0.00000  2       38
siesta:      6.95932  25.44831   0.00000  2       39
siesta:     -4.68258  10.66124   0.00000  2       40
siesta:     -4.68258  13.34970   0.00000  2       41
siesta:     -2.35420  14.69411   0.00000  2       42
siesta:     -2.35420  17.38257   0.00000  2       43
siesta:     -0.02582  18.72698   0.00000  2       44
siesta:     -0.02582  21.41544   0.00000  2       45
siesta:      2.30256  22.75985   0.00000  2       46
siesta:      2.30256  25.44831   0.00000  2       47
siesta:     -7.01096  14.69411   0.00000  2       48
siesta:     -7.01096  17.38257   0.00000  2       49
siesta:     -4.68258  18.72698   0.00000  2       50
siesta:     -2.35420  22.75985   0.00000  2       51
siesta:     -2.35420  25.44831   0.00000  2       52
siesta:     -9.33934  18.72698   0.00000  2       53
siesta:     -9.33934  21.41544   0.00000  2       54
siesta:     -7.01096  22.75985   0.00000  2       55
siesta:     -7.01096  25.44831   0.00000  2       56
siesta:    -11.66772  22.75985   0.00000  2       57
siesta:     -9.33934  26.79272   0.00000  2       58
siesta:     -9.33934  29.48119   0.00000  2       59
siesta:      4.63094  26.79272   0.00000  2       60
siesta:      4.63094  29.48119   0.00000  2       61
siesta:     -0.02582  26.79272   0.00000  2       62
siesta:     -0.02582  29.48119   0.00000  2       63
siesta:     -4.68258  26.79272   0.00000  2       64
siesta:     -4.68258  29.48119   0.00000  2       65
siesta:      2.30256  33.51406   0.00000  2       66
siesta:     -2.35420  33.51406   0.00000  2       67
siesta:     -7.01096  30.82560   0.00000  2       68
siesta:     -7.01096  33.51406   0.00000  2       69
siesta:     -0.02582  34.85847   0.00000  2       70
siesta:     -0.02582  37.54693   0.00000  2       71
siesta:     -0.02582  45.61267   0.00000  2       72

siesta: System type = slab      

initatomlists: Number of atoms, orbitals, and projectors:     72   936  1152

siesta: ******************** Simulation parameters ****************************
siesta:
siesta: The following are some of the parameters of the simulation.
siesta: A complete list of the parameters used, including default values,
siesta: can be found in file out.fdf
siesta:
redata: Non-Collinear-spin run           =     F
redata: SpinPolarized (Up/Down) run      =     F
redata: Number of spin components        =     1
redata: Long output                      =     F
redata: Number of Atomic Species         =        2
redata: Charge density info will appear in .RHO file
redata: Write Mulliken Pop.              =     NO
redata: Mesh Cutoff                      =   200.0000  Ry
redata: Net charge of the system         =     0.0000 |e|
redata: Max. number of SCF Iter          =      500
redata: SCF convergence failure will abort job
redata: Performing Pulay mixing using    =    10 iterations
redata: Mix DM in first SCF step ?       =     F
redata: Write Pulay info on disk?        =     F
redata: Discard 1st Pulay DM after  kick =     F
redata: New DM Mixing Weight             =     0.0500
redata: New DM Occupancy tolerance       = 0.000000000001
redata: No kicks to SCF
redata: DM Mixing Weight for Kicks       =     0.5000
redata: DM Tolerance for SCF             =     0.000100
redata: Require Energy convergence for SCF =     F
redata: DM Energy tolerance for SCF      =     0.000100 eV
redata: Require Harris convergence for SCF =     F
redata: DM Harris energy tolerance for SCF =     0.000100 eV
redata: Using Saved Data (generic)   =     F
redata: Use continuation files for DM    =     T
redata: Neglect nonoverlap interactions  =     F
redata: Method of Calculation            =     Diagonalization
redata: Divide and Conquer               =     T
redata: Electronic Temperature           =     0.0019  Ry
redata: Fix the spin of the system       =     F
redata: Dynamics option                  =     Verlet MD run
redata: Initial MD time step             =        1
redata:   Final MD time step             =        1
redata: Length of MD time step           =     1.0000  fs
redata: Initial Temperature of MD run    =     0.0000  K
redata: Perform a MD quench              =     F
redata: ***********************************************************************
Total number of electrons:   280.000000
Total ionic charge:   280.000000

* ProcessorY, Blocksize:    3  24

k-point displ. along   1 input, could be:     0.50    0.00
k-point displ. along   2 input, could be:     0.50    0.00
 Kpoints in:          231 . Kpoints trimmed:          231

siesta: k-grid: Number of k-points =   231
siesta: k-grid: Cutoff (effective) =     5.000 Ang
siesta: k-grid: Supercell and displacements
siesta: k-grid:   21   0   0      0.500
siesta: k-grid:    0  21   0      0.500
siesta: k-grid:    0   0   1      0.000
Naive supercell factors:     2    2    2

superc: Internal auxiliary supercell:     2 x     2 x     2  =       8
superc: Number of atoms, orbitals, and projectors:    576   7488   9216

* Maximum dynamic memory allocated =     4 MB

siesta:                 ==============================
                            Begin MD step =      1
                        ==============================

superc: Internal auxiliary supercell:     2 x     2 x     2  =       8
superc: Number of atoms, orbitals, and projectors:    576   7488   9216

outcell: Unit cell vectors (Ang):
       12.804619    7.392750    0.000000
        0.000000   14.785500    0.000000
        0.000000    0.000000   10.000000

outcell: Cell vector modules (Ang)   :   14.785500   14.785500   10.000000
outcell: Cell angles (23,13,12) (deg):     90.0000     90.0000     60.0000
outcell: Cell volume (Ang**3)        :   1893.2269
New_DM. Step:     1
Initializing Density Matrix...

InitMesh: MESH =   120 x   120 x    90 =     1296000
InitMesh: Mesh cutoff (required, used) =   200.000   223.865 Ry

* Maximum dynamic memory allocated =   151 MB

stepf: Fermi-Dirac step function

siesta: Program's energy decomposition (eV):
siesta: Ebs     =     -5759.628870
siesta: Eions   =     17378.557381
siesta: Ena     =      4535.755945
siesta: Ekin    =      5956.271858
siesta: Enl     =       702.485400
siesta: DEna    =        -0.000012
siesta: DUscf   =         0.000000
siesta: DUext   =         0.000000
siesta: Exc     =     -4176.681382
siesta: eta*DQ  =         0.000000
siesta: Emadel  =         0.000000
siesta: Emeta   =         0.000000
siesta: Emolmec =         0.000000
siesta: Ekinion =         0.000000
siesta: Eharris =    -10096.211536
siesta: Etot    =    -10360.725573
siesta: FreeEng =    -10360.725573

siesta: iscf   Eharris(eV)      E_KS(eV)   FreeEng(eV)   dDmax  Ef(eV)
siesta:    1   -10096.2115   -10360.7256   -10360.7256  6.5638 -7.8844
timer: Routine,Calls,Time,% = IterSCF        1    3039.042  99.59
elaps: Routine,Calls,Wall,% = IterSCF        1     253.856  99.59
siesta:    2   -14524.2107    -9389.7360    -9389.7702 10.9952 -3.9051
siesta:    3   -10150.5160   -10143.7744   -10143.7986  1.4795 -4.5204
siesta:    4   -10047.0227   -10093.4506   -10093.4621  1.4379 -4.8998
siesta:    5    -9997.7341   -10045.2822   -10045.3214  1.1769 -5.2269
siesta:    6    -9980.5515   -10006.4058   -10006.4800  0.9060 -5.0204
siesta:    7    -9964.0635    -9988.9317    -9988.9644  0.8157 -4.7270
siesta:    8    -9958.9274    -9965.8945    -9965.9633  0.6302 -4.4785
siesta:    9    -9952.3794    -9961.2935    -9961.3393  0.5311 -4.5648
siesta:   10    -9952.2451    -9960.2994    -9960.3475  0.5290 -4.5264
siesta:   11    -9949.5355    -9956.2912    -9956.3455  0.4209 -4.6122
siesta:   12    -9949.6756    -9943.6607    -9943.6775  0.4059 -4.3912
siesta:   13    -9948.9761    -9939.5428    -9939.5773  0.3300 -4.3984
siesta:   14    -9948.3284    -9940.9097    -9940.9707  0.3230 -4.4203
siesta:   15    -9948.3986    -9942.8043    -9942.8843  0.3479 -4.5119
siesta:   16    -9947.6898    -9943.9469    -9943.9965  0.1941 -4.5498
siesta:   17    -9947.6513    -9945.3204    -9945.3943  0.3139 -4.5437
siesta:   18    -9947.5183    -9947.4678    -9947.5294  0.2849 -4.5914
siesta:   19    -9947.3343    -9947.7884    -9947.8427  0.1840 -4.6017
siesta:   20    -9947.3791    -9947.8410    -9947.9066  0.3162 -4.5642
siesta:   21    -9947.2142    -9947.6494    -9947.7174  0.1547 -4.5667
siesta:   22    -9947.1941    -9948.2060    -9948.2911  0.1134 -4.5937
siesta:   23    -9947.1742    -9948.1064    -9948.1866  0.0374 -4.5745
siesta:   24    -9947.1542    -9948.5085    -9948.5927  0.0345 -4.5763
siesta:   25    -9947.1556    -9948.8513    -9948.9416  0.0362 -4.5754
siesta:   26    -9947.1980    -9949.0958    -9949.1823  0.1927 -4.5923
siesta:   27    -9947.1529    -9948.5817    -9948.6524  0.0401 -4.5762
siesta:   28    -9947.1507    -9948.0263    -9948.1110  0.0548 -4.5610
siesta:   29    -9947.1479    -9947.9920    -9948.0790  0.0135 -4.5673
siesta:   30    -9947.1482    -9947.8887    -9947.9759  0.0257 -4.5646
siesta:   31    -9947.1476    -9947.9241    -9948.0113  0.0109 -4.5683
siesta:   32    -9947.1519    -9947.7283    -9947.8158  0.0410 -4.5699
siesta:   33    -9947.1503    -9947.6846    -9947.7694  0.0262 -4.5678
siesta:   34    -9947.1506    -9947.6954    -9947.7814  0.0334 -4.5685
siesta:   35    -9947.1491    -9947.7222    -9947.8080  0.0233 -4.5673
siesta:   36    -9947.1476    -9947.7537    -9947.8407  0.0101 -4.5663
siesta:   37    -9947.1470    -9947.5764    -9947.6644  0.0094 -4.5644
siesta:   38    -9947.1463    -9947.4326    -9947.5206  0.0042 -4.5661
siesta:   39    -9947.1461    -9947.3773    -9947.4652  0.0079 -4.5659
siesta:   40    -9947.1455    -9947.3730    -9947.4609  0.0025 -4.5651
siesta:   41    -9947.1456    -9947.3404    -9947.4288  0.0017 -4.5653
siesta:   42    -9947.1458    -9947.2967    -9947.3851  0.0013 -4.5653
siesta:   43    -9947.1457    -9947.2617    -9947.3499  0.0010 -4.5655
siesta:   44    -9947.1457    -9947.2375    -9947.3257  0.0010 -4.5655
siesta:   45    -9947.1457    -9947.2062    -9947.2944  0.0008 -4.5655
siesta:   46    -9947.1457    -9947.1885    -9947.2767  0.0004 -4.5654
siesta:   47    -9947.1457    -9947.1686    -9947.2568  0.0004 -4.5653
siesta:   48    -9947.1457    -9947.1623    -9947.2505  0.0001 -4.5653
siesta:   49    -9947.1457    -9947.1569    -9947.2451  0.0001 -4.5653

siesta: E_KS(eV) =            -9947.1530

siesta: E_KS - E_eggbox =     -9947.1530

siesta: Atomic forces (eV/Ang):
----------------------------------------
   Tot   -0.163148   -0.144588    0.000000
----------------------------------------
   Max  568.359613
   Res  157.146309    sqrt( Sum f_i^2 / 3N )
----------------------------------------
   Max  568.359613    constrained

Stress-tensor-Voigt (kbar):     -722.82    -2741.80       -0.35        3.38        0.00        0.00
(Free)E + p*V (eV/cell)    -8582.4506
Target enthalpy (eV/cell)    -9947.2413

siesta: Stress tensor (static) (eV/Ang**3):
        -0.451147    0.002108    0.000000
         0.002108   -1.711279    0.000000
         0.000000    0.000000   -0.000216

siesta: Pressure (static):       1154.99060348  kBar

siesta: Stress tensor (total) (eV/Ang**3):
        -0.451147    0.002108    0.000000
         0.002108   -1.711279    0.000000
         0.000000    0.000000   -0.000216

siesta: Pressure (total):       1154.99060348  kBar

siesta: Temp_ion =       0.000 K

* Maximum dynamic memory allocated =   164 MB
Computing bands...

siesta: Program's energy decomposition (eV):
siesta: Ebs     =     -4447.439164
siesta: Eions   =     17378.557381
siesta: Ena     =      4535.755945
siesta: Ekin    =      8866.625951
siesta: Enl     =      -954.701031
siesta: DEna    =      -772.938586
siesta: DUscf   =       101.764434
siesta: DUext   =         0.000000
siesta: Exc     =     -4345.102375
siesta: eta*DQ  =         0.000000
siesta: Emadel  =         0.000000
siesta: Emeta   =         0.000000
siesta: Emolmec =         0.000000
siesta: Ekinion =         0.000000
siesta: Eharris =     -9947.145691
siesta: Etot    =     -9947.153044
siesta: FreeEng =     -9947.241260

siesta: Final energy (eV):
siesta:  Band Struct. =   -4447.439164
siesta:       Kinetic =    8866.625951
siesta:       Hartree =   28723.050005
siesta:    Ext. field =       0.000000
siesta:   Exch.-corr. =   -4345.102375
siesta:  Ion-electron =  -66037.299513
siesta:       Ion-ion =   22845.572887
siesta:       Ekinion =       0.000000
siesta:         Total =   -9947.153044

siesta: Atomic forces (eV/Ang):
siesta:      1    9.107573  405.048991    0.000000
siesta:      2    0.359562 -113.852242    0.000000
siesta:      3    0.274168   -0.254786    0.000000
siesta:      4   -0.428201   -0.011421    0.000000
siesta:      5   -2.101946   -1.896254    0.000000
siesta:      6   19.629529    1.603404    0.000000
siesta:      7  -19.252300    3.908091    0.000000
siesta:      8   -0.588193  113.469626    0.000000
siesta:      9    0.816986  543.992578    0.000000
siesta:     10    7.140426 -126.121085    0.000000
siesta:     11    3.249087  130.296652    0.000000
siesta:     12  -11.800981 -546.903481    0.000000
siesta:     13   -2.066605  128.957974    0.000000
siesta:     14   11.910236 -548.493852    0.000000
siesta:     15   28.304318    1.000282    0.000000
siesta:     16   30.516545 -549.550675    0.000000
siesta:     17    3.122605    0.060364    0.000000
siesta:     18   -2.363070    2.130227    0.000000
siesta:     19    2.873735    1.814659    0.000000
siesta:     20   -1.280272    0.581998    0.000000
siesta:     21  -26.185960    2.820967    0.000000
siesta:     22  -32.265697 -547.903804    0.000000
siesta:     23   -1.731156 -127.038577    0.000000
siesta:     24   33.808697  550.508533    0.000000
siesta:     25   27.597608   -5.866645    0.000000
siesta:     26   -1.430321   -1.532736    0.000000
siesta:     27    1.236895   -0.382819    0.000000
siesta:     28   -0.897452   -0.618100    0.000000
siesta:     29    2.485655   -1.508705    0.000000
siesta:     30   -0.343910    6.779967    0.000000
siesta:     31   -0.587233   -6.531594    0.000000
siesta:     32  -19.043244  550.973359    0.000000
siesta:     33    2.910594 -128.694644    0.000000
siesta:     34    0.272548  548.054148    0.000000
siesta:     35   19.845020  555.347654    0.000000
siesta:     36   19.746679   -8.052745    0.000000
siesta:     37   -0.695929   -1.482719    0.000000
siesta:     38    2.482985    2.086444    0.000000
siesta:     39   -0.453288   -1.006603    0.000000
siesta:     40  -33.292880  548.178387    0.000000
siesta:     41  -27.152128   -4.684907    0.000000
siesta:     42  -19.825117  555.247198    0.000000
siesta:     43  -19.827614   -7.842938    0.000000
siesta:     44   -0.024518  568.359613    0.000000
siesta:     45   -0.052363    2.932954    0.000000
siesta:     46   -3.492600    0.940127    0.000000
siesta:     47   -1.291745    0.401960    0.000000
siesta:     48    2.218932   -1.971469    0.000000
siesta:     49   -1.250015   -0.483208    0.000000
siesta:     50    0.806542   -1.653992    0.000000
siesta:     51    3.567454    0.875854    0.000000
siesta:     52    1.333667    0.482489    0.000000
siesta:     53    0.912876   -1.190139    0.000000
siesta:     54   -3.514563   -0.289733    0.000000
siesta:     55   -1.936567    1.968999    0.000000
siesta:     56    0.519806   -0.774666    0.000000
siesta:     57   -0.028945   -0.022802    0.000000
siesta:     58    0.253801    3.775869    0.000000
siesta:     59    0.989301   -0.136667    0.000000
siesta:     60    0.926439    0.169417    0.000000
siesta:     61    0.106327   -2.304610    0.000000
siesta:     62   -0.093965   -1.837414    0.000000
siesta:     63    0.185206 -555.487006    0.000000
siesta:     64   -0.862072    0.027698    0.000000
siesta:     65   -0.453109   -2.332465    0.000000
siesta:     66   29.295471 -404.877759    0.000000
siesta:     67  -29.450481 -551.563386    0.000000
siesta:     68   -2.493661    0.568712    0.000000
siesta:     69    2.341472    2.036631    0.000000
siesta:     70    1.089458  125.602771    0.000000
siesta:     71   -3.806252 -553.011212    0.000000
siesta:     72   -0.036998 -552.981323    0.000000
siesta: ----------------------------------------
siesta:    Tot   -0.163148   -0.144588    0.000000

siesta: Stress tensor (static) (eV/Ang**3):
siesta:    -0.451147    0.002108    0.000000
siesta:     0.002108   -1.711279    0.000000
siesta:     0.000000    0.000000   -0.000216

siesta: Cell volume =       1893.226884 Ang**3

siesta: Pressure (static):
siesta:                Solid            Molecule  Units
siesta:           0.00785131          0.12202281  Ry/Bohr**3
siesta:           0.72088064         11.20371915  eV/Ang**3
siesta:        1154.99060348      17950.53106682  kBar
(Free)E+ p_basis*V_orbitals  =       -9913.976014
(Free)Eharris+ p_basis*V_orbitals  =       -9913.964824

siesta: Electric dipole (a.u.)  =    0.000000    0.000000    0.000000
siesta: Electric dipole (Debye) =    0.000000    0.000000    0.000000

* Maximum dynamic memory allocated : Node    0 =   164 MB
* Maximum dynamic memory allocated : Node    1 =    66 MB
* Maximum dynamic memory allocated : Node    2 =    67 MB
* Maximum dynamic memory allocated : Node    3 =   150 MB
* Maximum dynamic memory allocated : Node    4 =   159 MB
* Maximum dynamic memory allocated : Node    5 =    59 MB
* Maximum dynamic memory allocated : Node    6 =    61 MB
* Maximum dynamic memory allocated : Node    7 =   151 MB
* Maximum dynamic memory allocated : Node    8 =   144 MB
* Maximum dynamic memory allocated : Node    9 =    59 MB
* Maximum dynamic memory allocated : Node   10 =    60 MB
* Maximum dynamic memory allocated : Node   11 =   138 MB

* Maximum memory occured during matrixMtoO                    

timer: CPU execution times:
timer:  Routine       Calls   Time/call    Tot.time        %
timer:  siesta            1  145262.213  145262.213   100.00
timer:  Setup             1       3.352       3.352     0.00
timer:  bands             3     225.752     677.256     0.47
timer:  writewave         1       0.023       0.023     0.00
timer:  KSV_init          1       0.004       0.004     0.00
timer:  IterMD            1  144574.743  144574.743    99.53
timer:  hsparse           1       0.281       0.281     0.00
timer:  overlap           1       6.018       6.018     0.00
timer:  IterSCF          49    2947.562  144430.555    99.43
timer:  kinefsm           2       3.064       6.128     0.00
timer:  nlefsm            2      19.777      39.554     0.03
timer:  DHSCF            50      72.303    3615.141     2.49
timer:  DHSCF1            1       1.190       1.190     0.00
timer:  DHSCF2            1      31.876      31.876     0.02
timer:  REORD           402       0.002       0.888     0.00
timer:  POISON           51       0.451      23.022     0.02
timer:  DHSCF3           50      71.123    3556.148     2.45
timer:  rhoofd           50      15.439     771.968     0.53
timer:  cellXC           50       2.406     120.292     0.08
timer:  vmat             50      33.625    1681.251     1.16
timer:  MolMec            2       0.000       0.000     0.00
timer:  diagon           49    2874.171  140834.385    96.95
timer:  c-eigval      11440       5.597   64025.561    44.08
timer:  c-buildHS     11440       0.035     404.357     0.28
timer:  cdiag         22759       5.701  129754.675    89.32
timer:  cdiag1        22759       0.261    5948.769     4.10
timer:  cdiag2        22759       1.833   41719.310    28.72
timer:  cdiag3        22759       3.390   77158.567    53.12
timer:  cdiag4        22759       0.088    2006.973     1.38
timer:  c-eigvec      11319       5.873   66474.245    45.76
timer:  c-buildD      11319       0.967   10949.623     7.54
timer:  DHSCF4            1      25.611      25.611     0.02
timer:  dfscf             1      23.559      23.559     0.02
timer:  overfsm           1       0.312       0.312     0.00
timer:  optical           1       6.264       6.264     0.00
  

elaps: ELAPSED times:
elaps:  Routine       Calls   Time/call    Tot.time        %
elaps:  siesta            1   12133.687   12133.687   100.00
elaps:  Setup             1       0.280       0.280     0.00
elaps:  bands             3      18.872      56.616     0.47
elaps:  writewave         1       0.002       0.002     0.00
elaps:  KSV_init          1       0.000       0.000     0.00
elaps:  IterMD            1   12076.263   12076.263    99.53
elaps:  hsparse           1       0.028       0.028     0.00
elaps:  overlap           1       0.716       0.716     0.01
elaps:  IterSCF          49     246.209   12064.219    99.43
elaps:  kinefsm           2       0.367       0.735     0.01
elaps:  nlefsm            2       1.758       3.515     0.03
elaps:  DHSCF            50       6.081     304.072     2.51
elaps:  DHSCF1            1       0.101       0.101     0.00
elaps:  DHSCF2            1       2.661       2.661     0.02
elaps:  REORD           402       0.000       0.120     0.00
elaps:  POISON           51       0.038       1.946     0.02
elaps:  DHSCF3           50       5.942     297.122     2.45
elaps:  rhoofd           50       2.712     135.622     1.12
elaps:  cellXC           50       0.201      10.025     0.08
elaps:  vmat             50       2.810     140.503     1.16
elaps:  MolMec            2       0.000       0.000     0.00
elaps:  diagon           49     240.086   11764.201    96.95
elaps:  c-eigval      11440       0.467    5347.952    44.08
elaps:  c-buildHS     11440       0.004      43.946     0.36
elaps:  cdiag         22759       0.471   10712.726    88.29
elaps:  cdiag1        22759       0.021     485.359     4.00
elaps:  cdiag2        22759       0.153    3487.962    28.75
elaps:  cdiag3        22759       0.284    6453.869    53.19
elaps:  cdiag4        22759       0.007     162.376     1.34
elaps:  c-eigvec      11319       0.481    5446.299    44.89
elaps:  c-buildD      11319       0.090    1020.657     8.41
elaps:  DHSCF4            1       4.141       4.141     0.03
elaps:  dfscf             1       3.888       3.888     0.03
elaps:  overfsm           1       0.035       0.035     0.00
elaps:  optical           1       0.000       0.000     0.00
  
>> End of run:   4-MAY-2016   4:16:16
