Siesta Version:                                        siesta-3.2-pl-3
Architecture  : x86_64-unknown-linux-gnu--unknown
Compiler flags: mpiifort -g -O2 -fPIC -xSSE4.1 -fp-model source -shared-intel 
PARALLEL version

* Running on    8 nodes in parallel
>> Start of run:  25-APR-2016  12:14:20

                           ***********************       
                           *  WELCOME TO SIESTA  *       
                           ***********************       

reinit: Reading from standard input
************************** Dump of input data file ****************************
#(1) General system descriptors
SystemName            GRP_doping    # Descriptive name of the system
SystemLabel           GRP_doping    # Short name for naming files
%include STRUCT.fdf
%include KPT.fdf
%include BASIS.fdf
#%include TS.fdf # for transiesta calculation
#(4) DFT, Grid, SCF
XC.functional         GGA           # LDA or GGA (default = LDA)
XC.authors            PBE           # CA (Ceperley-Aldr) = PZ
                                    #    (Perdew-Zunger) - LDA - Default
                                    # PW92 (Perdew-Wang-92) - LDA
                                    # PBE (Perdew-Burke-Ernzerhof) - GGA
MeshCutoff            200.000000    Ry      # Default: 50.0 Ry ~ 0.444 Bohr
                                    #         100.0 Ry ~ 0.314 Bohr
MaxSCFIterations      500           # Default: 50
DM.MixingWeight       0.05          # Default: 0.25
DM.NumberPulay        10            # Default: 0
DM.PulayOnFile        F             # SystemLabel.P1, SystemLabel.P2
DM.Tolerance          1.d-4         # Default: 1.d-4
DM.UseSaveDM          .true.        # because of the bug
SCFMustConverge       .true.
NeglNonOverlapInt     F             # Default: F
#(5) Eigenvalue problem: order-N or diagonalization
SolutionMethod        Diagon        # or Transiesta
ElectronicTemperature 300.0 K       # Default: 300.0 K
#(6) Molecular dynamics and relaxations
#MD.TypeOfRun          CG            # Type of dynamics:
#MD.VariableCell       F
#MD.NumCGsteps         0           # 0 for single-point / 100 for gopt
#MD.MaxCGDispl         0.2 Bohr      # Default: 0.2 Bohr
#MD.MaxForceTol        0.02 eV/Ang   # Default: 0.04 eV/Ang
#MD.MaxStressTol       1.0 GPa       # Default: 1.0 GPa
# Geometry Constraints
#%block GeometryConstraints
#	position from 1 to 44
#%endblock GeometryConstraints
BandLinesScale   pi/a
%block BandLines
 1   0.00000000  0.00000000  0.00000000
50   0.00000000  0.07809418  0.00000000
50   0.04509075  0.07809242  0.00000000
20   0.00000000  0.00000000  0.00000000
%endblock BandLines
************************** End of input data file *****************************

reinit: -----------------------------------------------------------------------
reinit: System Name: GRP_doping
reinit: -----------------------------------------------------------------------
reinit: System Label: GRP_doping                                                  
reinit: -----------------------------------------------------------------------

initatom: Reading input for the pseudopotentials and atomic orbitals ----------
 Species number:            1  Label: B Atomic number:           5
 Species number:            2  Label: C Atomic number:           6
Ground state valence configuration:   2s02  2p01
Reading pseudopotential information in formatted form from B.psf

Valence configuration for pseudopotential generation:
2s( 2.00) rc: 1.74
2p( 1.00) rc: 1.74
3d( 0.00) rc: 1.74
4f( 0.00) rc: 1.74
Ground state valence configuration:   2s02  2p02
Reading pseudopotential information in formatted form from C.psf

Valence configuration for pseudopotential generation:
2s( 2.00) rc: 1.54
2p( 2.00) rc: 1.54
3d( 0.00) rc: 1.54
4f( 0.00) rc: 1.54
For B, standard SIESTA heuristics set lmxkb to 3
 (one more than the basis l, including polarization orbitals).
Use PS.lmax or PS.KBprojectors blocks to override.
For C, standard SIESTA heuristics set lmxkb to 3
 (one more than the basis l, including polarization orbitals).
Use PS.lmax or PS.KBprojectors blocks to override.

<basis_specs>
===============================================================================
B                    Z=   5    Mass=  10.810        Charge= 0.17977+309
Lmxo=1 Lmxkb= 3    BasisType=split      Semic=F
L=0  Nsemic=0  Cnfigmx=2
          n=1  nzeta=2  polorb=0
            splnorm:   0.15000    
               vcte:    0.0000    
               rinn:    0.0000    
                rcs:    0.0000      0.0000    
            lambdas:    1.0000      1.0000    
L=1  Nsemic=0  Cnfigmx=2
          n=1  nzeta=2  polorb=1
            splnorm:   0.15000    
               vcte:    0.0000    
               rinn:    0.0000    
                rcs:    0.0000      0.0000    
            lambdas:    1.0000      1.0000    
-------------------------------------------------------------------------------
L=0  Nkbl=1  erefs: 0.17977+309
L=1  Nkbl=1  erefs: 0.17977+309
L=2  Nkbl=1  erefs: 0.17977+309
L=3  Nkbl=1  erefs: 0.17977+309
===============================================================================
</basis_specs>

atom: Called for B                     (Z =   5)

read_vps: Pseudopotential generation method:
read_vps: ATM3      Troullier-Martins                       
Total valence charge:    3.00000

read_vps: Pseudopotential includes a core correction:
read_vps: Pseudo-core for xc-correction

xc_check: Exchange-correlation functional:
xc_check: GGA Perdew, Burke & Ernzerhof 1996
V l=0 = -2*Zval/r beyond r=  1.7165
V l=1 = -2*Zval/r beyond r=  1.7165
V l=2 = -2*Zval/r beyond r=  1.7165
V l=3 = -2*Zval/r beyond r=  1.6951
All V_l potentials equal beyond r=  1.7165
This should be close to max(r_c) in ps generation
All pots = -2*Zval/r beyond r=  1.7165

VLOCAL1: 99.0% of the norm of Vloc inside     14.733 Ry
VLOCAL1: 99.9% of the norm of Vloc inside     33.577 Ry
atom: Maximum radius for 4*pi*r*r*local-pseudopot. charge    2.04484
atom: Maximum radius for r*vlocal+2*Zval:    1.75994
GHOST: No ghost state for L =  0
GHOST: No ghost state for L =  1
GHOST: No ghost state for L =  2
GHOST: No ghost state for L =  3

KBgen: Kleinman-Bylander projectors: 
   l= 0   rc=  1.897051   el= -0.693730   Ekb=  4.595746   kbcos=  0.286105
   l= 1   rc=  1.920920   el= -0.265236   Ekb= -2.350715   kbcos= -0.315747
   l= 2   rc=  2.044840   el=  0.002055   Ekb= -0.690767   kbcos= -0.013822
   l= 3   rc=  2.149707   el=  0.003188   Ekb= -0.315358   kbcos= -0.002055

KBgen: Total number of  Kleinman-Bylander projectors:   16
atom: -------------------------------------------------------------------------

atom: SANKEY-TYPE ORBITALS:
atom: Selected multiple-zeta basis: split     

SPLIT: Orbitals with angular momentum L= 0

SPLIT: Basis orbitals for state 2s

SPLIT: PAO cut-off radius determined from an
SPLIT: energy shift=  0.007350 Ry

   izeta = 1
                 lambda =    1.000000
                     rc =    5.422032
                 energy =   -0.686029
                kinetic =    0.576707
    potential(screened) =   -1.262736
       potential(ionic) =   -3.271094

   izeta = 2
                 rmatch =    4.222573
              splitnorm =    0.150000
                 energy =   -0.602132
                kinetic =    0.858975
    potential(screened) =   -1.461107
       potential(ionic) =   -3.582536

SPLIT: Orbitals with angular momentum L= 1

SPLIT: Basis orbitals for state 2p

SPLIT: PAO cut-off radius determined from an
SPLIT: energy shift=  0.007350 Ry

   izeta = 1
                 lambda =    1.000000
                     rc =    6.790259
                 energy =   -0.258578
                kinetic =    1.481412
    potential(screened) =   -1.739989
       potential(ionic) =   -3.657461

   izeta = 2
                 rmatch =    4.608740
              splitnorm =    0.150000
                 energy =   -0.173757
                kinetic =    2.186690
    potential(screened) =   -2.360447
       potential(ionic) =   -4.464260

POLgen: Perturbative polarization orbital with L=  2

POLgen: Polarization orbital for state 2p

   izeta = 1
                     rc =    6.790259
                 energy =    0.684082
                kinetic =    1.471481
    potential(screened) =   -0.787399
       potential(ionic) =   -2.406985
atom: Total number of Sankey-type orbitals: 13

atm_pop: Valence configuration (for local Pseudopot. screening):
 2s( 2.00)                                                            
 2p( 1.00)                                                            
Vna: chval, zval:    3.00000   3.00000

Vna:  Cut-off radius for the neutral-atom potential:   6.790259
comcore: Pseudo-core radius Rcore=  2.122997

atom: _________________________________________________________________________

<basis_specs>
===============================================================================
C                    Z=   6    Mass=  12.010        Charge= 0.17977+309
Lmxo=1 Lmxkb= 3    BasisType=split      Semic=F
L=0  Nsemic=0  Cnfigmx=2
          n=1  nzeta=2  polorb=0
            splnorm:   0.15000    
               vcte:    0.0000    
               rinn:    0.0000    
                rcs:    0.0000      0.0000    
            lambdas:    1.0000      1.0000    
L=1  Nsemic=0  Cnfigmx=2
          n=1  nzeta=2  polorb=1
            splnorm:   0.15000    
               vcte:    0.0000    
               rinn:    0.0000    
                rcs:    0.0000      0.0000    
            lambdas:    1.0000      1.0000    
-------------------------------------------------------------------------------
L=0  Nkbl=1  erefs: 0.17977+309
L=1  Nkbl=1  erefs: 0.17977+309
L=2  Nkbl=1  erefs: 0.17977+309
L=3  Nkbl=1  erefs: 0.17977+309
===============================================================================
</basis_specs>

atom: Called for C                     (Z =   6)

read_vps: Pseudopotential generation method:
read_vps: ATM3      Troullier-Martins                       
Total valence charge:    4.00000

read_vps: Pseudopotential includes a core correction:
read_vps: Pseudo-core for xc-correction

xc_check: Exchange-correlation functional:
xc_check: GGA Perdew, Burke & Ernzerhof 1996
V l=0 = -2*Zval/r beyond r=  1.5227
V l=1 = -2*Zval/r beyond r=  1.5227
V l=2 = -2*Zval/r beyond r=  1.5227
V l=3 = -2*Zval/r beyond r=  1.5038
All V_l potentials equal beyond r=  1.5227
This should be close to max(r_c) in ps generation
All pots = -2*Zval/r beyond r=  1.5227

VLOCAL1: 99.0% of the norm of Vloc inside     18.722 Ry
VLOCAL1: 99.9% of the norm of Vloc inside     42.668 Ry
atom: Maximum radius for 4*pi*r*r*local-pseudopot. charge    1.83678
atom: Maximum radius for r*vlocal+2*Zval:    1.58088
GHOST: No ghost state for L =  0
GHOST: No ghost state for L =  1
GHOST: No ghost state for L =  2
GHOST: No ghost state for L =  3

KBgen: Kleinman-Bylander projectors: 
   l= 0   rc=  1.704034   el= -1.009801   Ekb=  5.335044   kbcos=  0.316824
   l= 1   rc=  1.704034   el= -0.388707   Ekb= -3.785862   kbcos= -0.366464
   l= 2   rc=  1.791422   el=  0.001971   Ekb= -0.970471   kbcos= -0.009212
   l= 3   rc=  1.859892   el=  0.003065   Ekb= -0.399525   kbcos= -0.001223

KBgen: Total number of  Kleinman-Bylander projectors:   16
atom: -------------------------------------------------------------------------

atom: SANKEY-TYPE ORBITALS:
atom: Selected multiple-zeta basis: split     

SPLIT: Orbitals with angular momentum L= 0

SPLIT: Basis orbitals for state 2s

SPLIT: PAO cut-off radius determined from an
SPLIT: energy shift=  0.007350 Ry

   izeta = 1
                 lambda =    1.000000
                     rc =    4.632753
                 energy =   -1.002270
                kinetic =    0.855760
    potential(screened) =   -1.858031
       potential(ionic) =   -5.417575

   izeta = 2
                 rmatch =    3.431921
              splitnorm =    0.150000
                 energy =   -0.867111
                kinetic =    1.300804
    potential(screened) =   -2.167915
       potential(ionic) =   -5.962684

SPLIT: Orbitals with angular momentum L= 1

SPLIT: Basis orbitals for state 2p

SPLIT: PAO cut-off radius determined from an
SPLIT: energy shift=  0.007350 Ry

   izeta = 1
                 lambda =    1.000000
                     rc =    5.658549
                 energy =   -0.381140
                kinetic =    2.399701
    potential(screened) =   -2.780841
       potential(ionic) =   -6.206085

   izeta = 2
                 rmatch =    3.653288
              splitnorm =    0.150000
                 energy =   -0.249149
                kinetic =    3.542762
    potential(screened) =   -3.791911
       potential(ionic) =   -7.581078

POLgen: Perturbative polarization orbital with L=  2

POLgen: Polarization orbital for state 2p

   izeta = 1
                     rc =    5.658549
                 energy =    1.109913
                kinetic =    2.304789
    potential(screened) =   -1.194876
       potential(ionic) =   -4.013592
atom: Total number of Sankey-type orbitals: 13

atm_pop: Valence configuration (for local Pseudopot. screening):
 2s( 2.00)                                                            
 2p( 2.00)                                                            
Vna: chval, zval:    4.00000   4.00000

Vna:  Cut-off radius for the neutral-atom potential:   5.658549
comcore: Pseudo-core radius Rcore=  1.791422

atom: _________________________________________________________________________

prinput: Basis input ----------------------------------------------------------

PAO.BasisType split     

%block ChemicalSpeciesLabel
    1    5 B                       # Species index, atomic number, species label
    2    6 C                       # Species index, atomic number, species label
%endblock ChemicalSpeciesLabel

%block PAO.Basis                 # Define Basis set
B                     2                    # Species label, number of l-shells
 n=2   0   2                         # n, l, Nzeta 
   5.422      4.223   
   1.000      1.000   
 n=2   1   2 P   1                   # n, l, Nzeta, Polarization, NzetaPol
   6.790      4.609   
   1.000      1.000   
C                     2                    # Species label, number of l-shells
 n=2   0   2                         # n, l, Nzeta 
   4.633      3.432   
   1.000      1.000   
 n=2   1   2 P   1                   # n, l, Nzeta, Polarization, NzetaPol
   5.659      3.653   
   1.000      1.000   
%endblock PAO.Basis

prinput: ----------------------------------------------------------------------

coor:   Atomic-coordinates input format  =     Fractional

siesta: Atomic coordinates (Bohr) and species
siesta:     -2.35420  38.89134   0.00000  1        1
siesta:      2.30256  38.89134   0.00000  1        2
siesta:      4.63094  34.85847   0.00000  1        3
siesta:      4.63094  37.54693   0.00000  1        4
siesta:      6.95932  33.51406   0.00000  1        5
siesta:     -4.68258  34.85847   0.00000  1        6
siesta:     -4.68258  37.54693   0.00000  1        7
siesta:      2.30256  25.44831   0.00000  1        8
siesta:     -4.68258  21.41544   0.00000  1        9
siesta:     -7.01096  22.75985   0.00000  1       10
siesta:     -7.01096  25.44831   0.00000  1       11
siesta:     -9.33934  29.48119   0.00000  1       12
siesta:     -0.02582  26.79272   0.00000  1       13
siesta:     -0.02582  29.48119   0.00000  1       14
siesta:     -4.68258  26.79272   0.00000  1       15
siesta:     -4.68258  29.48119   0.00000  1       16
siesta:     -2.35420  30.82560   0.00000  1       17
siesta:     -2.35420  33.51406   0.00000  1       18
siesta:     -7.01096  30.82560   0.00000  1       19
siesta:     -7.01096  33.51406   0.00000  1       20
siesta:     -0.02582  34.85847   0.00000  1       21
siesta:     -0.02582  37.54693   0.00000  1       22
siesta:     -0.02582   2.59549   0.00000  2       23
siesta:     -0.02582   5.28395   0.00000  2       24
siesta:     -2.35420  41.57980   0.00000  2       25
siesta:      2.30256  41.57980   0.00000  2       26
siesta:      6.95932  30.82560   0.00000  2       27
siesta:      9.28770  26.79272   0.00000  2       28
siesta:      9.28770  29.48119   0.00000  2       29
siesta:      2.30256   6.62836   0.00000  2       30
siesta:      2.30256   9.31683   0.00000  2       31
siesta:      4.63094  10.66124   0.00000  2       32
siesta:      4.63094  13.34970   0.00000  2       33
siesta:      6.95932  14.69411   0.00000  2       34
siesta:      6.95932  17.38257   0.00000  2       35
siesta:      9.28770  18.72698   0.00000  2       36
siesta:      9.28770  21.41544   0.00000  2       37
siesta:     11.61608  22.75985   0.00000  2       38
siesta:     11.61608  25.44831   0.00000  2       39
siesta:     -2.35420   6.62836   0.00000  2       40
siesta:     -2.35420   9.31683   0.00000  2       41
siesta:     -0.02582  10.66124   0.00000  2       42
siesta:     -0.02582  13.34970   0.00000  2       43
siesta:      2.30256  14.69411   0.00000  2       44
siesta:      2.30256  17.38257   0.00000  2       45
siesta:      4.63094  18.72698   0.00000  2       46
siesta:      4.63094  21.41544   0.00000  2       47
siesta:      6.95932  22.75985   0.00000  2       48
siesta:      6.95932  25.44831   0.00000  2       49
siesta:     -4.68258  10.66124   0.00000  2       50
siesta:     -4.68258  13.34970   0.00000  2       51
siesta:     -2.35420  14.69411   0.00000  2       52
siesta:     -2.35420  17.38257   0.00000  2       53
siesta:     -0.02582  18.72698   0.00000  2       54
siesta:     -0.02582  21.41544   0.00000  2       55
siesta:      2.30256  22.75985   0.00000  2       56
siesta:     -7.01096  14.69411   0.00000  2       57
siesta:     -7.01096  17.38257   0.00000  2       58
siesta:     -4.68258  18.72698   0.00000  2       59
siesta:     -2.35420  22.75985   0.00000  2       60
siesta:     -2.35420  25.44831   0.00000  2       61
siesta:     -9.33934  18.72698   0.00000  2       62
siesta:     -9.33934  21.41544   0.00000  2       63
siesta:    -11.66772  22.75985   0.00000  2       64
siesta:    -11.66772  25.44831   0.00000  2       65
siesta:     -9.33934  26.79272   0.00000  2       66
siesta:      4.63094  26.79272   0.00000  2       67
siesta:      4.63094  29.48119   0.00000  2       68
siesta:      2.30256  30.82560   0.00000  2       69
siesta:      2.30256  33.51406   0.00000  2       70
siesta:     -0.02582  42.92421   0.00000  2       71
siesta:     -0.02582  45.61267   0.00000  2       72

siesta: System type = slab      

initatomlists: Number of atoms, orbitals, and projectors:     72   936  1152

siesta: ******************** Simulation parameters ****************************
siesta:
siesta: The following are some of the parameters of the simulation.
siesta: A complete list of the parameters used, including default values,
siesta: can be found in file out.fdf
siesta:
redata: Non-Collinear-spin run           =     F
redata: SpinPolarized (Up/Down) run      =     F
redata: Number of spin components        =     1
redata: Long output                      =     F
redata: Number of Atomic Species         =        2
redata: Charge density info will appear in .RHO file
redata: Write Mulliken Pop.              =     NO
redata: Mesh Cutoff                      =   200.0000  Ry
redata: Net charge of the system         =     0.0000 |e|
redata: Max. number of SCF Iter          =      500
redata: SCF convergence failure will abort job
redata: Performing Pulay mixing using    =    10 iterations
redata: Mix DM in first SCF step ?       =     F
redata: Write Pulay info on disk?        =     F
redata: Discard 1st Pulay DM after  kick =     F
redata: New DM Mixing Weight             =     0.0500
redata: New DM Occupancy tolerance       = 0.000000000001
redata: No kicks to SCF
redata: DM Mixing Weight for Kicks       =     0.5000
redata: DM Tolerance for SCF             =     0.000100
redata: Require Energy convergence for SCF =     F
redata: DM Energy tolerance for SCF      =     0.000100 eV
redata: Require Harris convergence for SCF =     F
redata: DM Harris energy tolerance for SCF =     0.000100 eV
redata: Using Saved Data (generic)   =     F
redata: Use continuation files for DM    =     T
redata: Neglect nonoverlap interactions  =     F
redata: Method of Calculation            =     Diagonalization
redata: Divide and Conquer               =     T
redata: Electronic Temperature           =     0.0019  Ry
redata: Fix the spin of the system       =     F
redata: Dynamics option                  =     Verlet MD run
redata: Initial MD time step             =        1
redata:   Final MD time step             =        1
redata: Length of MD time step           =     1.0000  fs
redata: Initial Temperature of MD run    =     0.0000  K
redata: Perform a MD quench              =     F
redata: ***********************************************************************
Total number of electrons:   266.000000
Total ionic charge:   266.000000

* ProcessorY, Blocksize:    2  24

k-point displ. along   1 input, could be:     0.50    0.00
k-point displ. along   2 input, could be:     0.50    0.00
 Kpoints in:          231 . Kpoints trimmed:          231

siesta: k-grid: Number of k-points =   231
siesta: k-grid: Cutoff (effective) =     5.000 Ang
siesta: k-grid: Supercell and displacements
siesta: k-grid:   21   0   0      0.500
siesta: k-grid:    0  21   0      0.500
siesta: k-grid:    0   0   1      0.000
Naive supercell factors:     2    2    2

superc: Internal auxiliary supercell:     2 x     2 x     2  =       8
superc: Number of atoms, orbitals, and projectors:    576   7488   9216

* Maximum dynamic memory allocated =     4 MB

siesta:                 ==============================
                            Begin MD step =      1
                        ==============================

superc: Internal auxiliary supercell:     2 x     2 x     2  =       8
superc: Number of atoms, orbitals, and projectors:    576   7488   9216

outcell: Unit cell vectors (Ang):
       12.804619    7.392750    0.000000
        0.000000   14.785500    0.000000
        0.000000    0.000000   10.000000

outcell: Cell vector modules (Ang)   :   14.785500   14.785500   10.000000
outcell: Cell angles (23,13,12) (deg):     90.0000     90.0000     60.0000
outcell: Cell volume (Ang**3)        :   1893.2269
New_DM. Step:     1
Initializing Density Matrix...

InitMesh: MESH =   120 x   120 x    90 =     1296000
InitMesh: Mesh cutoff (required, used) =   200.000   223.865 Ry

* Maximum dynamic memory allocated =   238 MB

stepf: Fermi-Dirac step function

siesta: Program's energy decomposition (eV):
siesta: Ebs     =     -5489.572623
siesta: Eions   =     15585.763425
siesta: Ena     =      4193.343672
siesta: Ekin    =      5217.942150
siesta: Enl     =       831.078040
siesta: DEna    =        -0.000007
siesta: DUscf   =         0.000000
siesta: DUext   =         0.000000
siesta: Exc     =     -4197.151435
siesta: eta*DQ  =         0.000000
siesta: Emadel  =         0.000000
siesta: Emeta   =         0.000000
siesta: Emolmec =         0.000000
siesta: Ekinion =         0.000000
siesta: Eharris =     -9346.106688
siesta: Etot    =     -9540.551004
siesta: FreeEng =     -9540.551004

siesta: iscf   Eharris(eV)      E_KS(eV)   FreeEng(eV)   dDmax  Ef(eV)
siesta:    1    -9346.1067    -9540.5510    -9540.5510  7.2788 -8.3843
timer: Routine,Calls,Time,% = IterSCF        1    4481.178  99.74
elaps: Routine,Calls,Wall,% = IterSCF        1     560.831  99.74
siesta:    2   -15011.7742    -8458.0237    -8458.0755 17.2071 -6.1920
siesta:    3    -9381.8357    -9356.2393    -9356.2787  2.3504 -5.6503
siesta:    4    -9312.3005    -9286.6478    -9286.6777  1.5187 -5.4541
siesta:    5    -9241.1919    -9222.0451    -9222.0973  1.3623 -5.2979
siesta:    6    -9189.2544    -9178.6985    -9178.7336  1.1736 -5.1656
siesta:    7    -9185.7464    -9168.3731    -9168.4076  0.9506 -5.1149
siesta:    8    -9183.0966    -9162.2851    -9162.3192  0.9354 -5.0900
siesta:    9    -9180.0018    -9156.9498    -9156.9635  0.4975 -5.1905
siesta:   10    -9180.0203    -9153.2002    -9153.2282  0.4525 -5.0939
siesta:   11    -9179.3410    -9153.8266    -9153.8553  0.3057 -5.0490
siesta:   12    -9179.4648    -9153.4434    -9153.4452  0.3173 -4.9506
siesta:   13    -9179.1799    -9156.2815    -9156.3051  0.2572 -4.9744
siesta:   14    -9178.2403    -9162.4164    -9162.4341  0.1423 -5.0412
siesta:   15    -9178.2807    -9165.8450    -9165.8838  0.1838 -5.1242
siesta:   16    -9178.1358    -9169.1013    -9169.1067  0.1029 -5.1619
siesta:   17    -9178.0849    -9170.5705    -9170.5887  0.0783 -5.1683
siesta:   18    -9178.0449    -9171.8275    -9171.8472  0.0652 -5.1619
siesta:   19    -9178.0028    -9172.6549    -9172.6716  0.0467 -5.1537
siesta:   20    -9177.9847    -9173.5015    -9173.5270  0.0376 -5.1523
siesta:   21    -9177.9830    -9175.4824    -9175.5083  0.0696 -5.1637
siesta:   22    -9177.9835    -9176.7780    -9176.8056  0.0344 -5.1864
siesta:   23    -9177.9817    -9177.0148    -9177.0389  0.0211 -5.1839
siesta:   24    -9177.9780    -9177.4020    -9177.4252  0.0121 -5.1827
siesta:   25    -9177.9760    -9177.7538    -9177.7789  0.0074 -5.1806
siesta:   26    -9177.9751    -9177.7550    -9177.7803  0.0081 -5.1798
siesta:   27    -9177.9763    -9177.9231    -9177.9486  0.0118 -5.1800
siesta:   28    -9177.9749    -9177.8609    -9177.8852  0.0042 -5.1767
siesta:   29    -9177.9745    -9177.9463    -9177.9718  0.0026 -5.1758
siesta:   30    -9177.9747    -9177.9719    -9177.9977  0.0020 -5.1757
siesta:   31    -9177.9746    -9177.9781    -9178.0037  0.0012 -5.1752
siesta:   32    -9177.9747    -9177.9796    -9178.0053  0.0006 -5.1756
siesta:   33    -9177.9746    -9177.9740    -9177.9996  0.0003 -5.1755
siesta:   34    -9177.9746    -9177.9666    -9177.9923  0.0003 -5.1756
siesta:   35    -9177.9746    -9177.9652    -9177.9908  0.0003 -5.1755
siesta:   36    -9177.9746    -9177.9684    -9177.9941  0.0002 -5.1756
siesta:   37    -9177.9746    -9177.9725    -9177.9981  0.0002 -5.1756
siesta:   38    -9177.9746    -9177.9730    -9177.9986  0.0001 -5.1756
siesta:   39    -9177.9746    -9177.9714    -9177.9971  0.0001 -5.1757

siesta: E_KS(eV) =            -9177.9713

siesta: E_KS - E_eggbox =     -9177.9713

siesta: Atomic forces (eV/Ang):
----------------------------------------
   Tot   -0.083803    0.109315    0.000000
----------------------------------------
   Max  563.780841
   Res  138.721045    sqrt( Sum f_i^2 / 3N )
----------------------------------------
   Max  563.780841    constrained

Stress-tensor-Voigt (kbar):     -709.50    -2562.93       -0.66        4.56        0.00        0.00
(Free)E + p*V (eV/cell)    -7888.7853
Target enthalpy (eV/cell)    -9177.9969

siesta: Stress tensor (static) (eV/Ang**3):
        -0.442829    0.002844    0.000000
         0.002844   -1.599639    0.000000
         0.000000    0.000000   -0.000412

siesta: Pressure (static):       1091.02984810  kBar

siesta: Stress tensor (total) (eV/Ang**3):
        -0.442829    0.002844    0.000000
         0.002844   -1.599639    0.000000
         0.000000    0.000000   -0.000412

siesta: Pressure (total):       1091.02984810  kBar

siesta: Temp_ion =       0.000 K

* Maximum dynamic memory allocated =   254 MB
Computing bands...

siesta: Program's energy decomposition (eV):
siesta: Ebs     =     -4104.698480
siesta: Eions   =     15585.763425
siesta: Ena     =      4193.343672
siesta: Ekin    =      8033.466628
siesta: Enl     =      -801.841803
siesta: DEna    =      -758.051954
siesta: DUscf   =       103.327245
siesta: DUext   =         0.000000
siesta: Exc     =     -4362.451627
siesta: eta*DQ  =         0.000000
siesta: Emadel  =         0.000000
siesta: Emeta   =         0.000000
siesta: Emolmec =         0.000000
siesta: Ekinion =         0.000000
siesta: Eharris =     -9177.974623
siesta: Etot    =     -9177.971265
siesta: FreeEng =     -9177.996881

siesta: Final energy (eV):
siesta:  Band Struct. =   -4104.698480
siesta:       Kinetic =    8033.466628
siesta:       Hartree =   25881.648782
siesta:    Ext. field =       0.000000
siesta:   Exch.-corr. =   -4362.451627
siesta:  Ion-electron =  -59511.972038
siesta:       Ion-ion =   20781.336992
siesta:       Ekinion =       0.000000
siesta:         Total =   -9177.971265

siesta: Atomic forces (eV/Ang):
siesta:      1    4.466867  106.670223    0.000000
siesta:      2   -3.985622  105.192276    0.000000
siesta:      3   17.631367    1.750817    0.000000
siesta:      4   18.423800 -389.018317    0.000000
siesta:      5    2.647658    0.552519    0.000000
siesta:      6  -15.006883    1.212568    0.000000
siesta:      7  -18.023803 -389.933017    0.000000
siesta:      8    3.290439   -1.801657    0.000000
siesta:      9    3.022745   -1.784665    0.000000
siesta:     10   -2.396605   -2.847429    0.000000
siesta:     11   -4.884435    2.585294    0.000000
siesta:     12   -4.411297   -1.956840    0.000000
siesta:     13   -3.294548   -0.902062    0.000000
siesta:     14   -0.843119 -410.241679    0.000000
siesta:     15    6.217001   -3.898455    0.000000
siesta:     16   -1.515390    2.141517    0.000000
siesta:     17  -14.538950   -0.026325    0.000000
siesta:     18  -16.160092 -400.757743    0.000000
siesta:     19   -2.251164    4.249321    0.000000
siesta:     20   -3.654833    2.528620    0.000000
siesta:     21   -4.022254  108.409846    0.000000
siesta:     22   -1.140453 -378.946244    0.000000
siesta:     23    2.719259  407.312661    0.000000
siesta:     24   -4.462986 -123.488006    0.000000
siesta:     25  -17.169388 -545.737182    0.000000
siesta:     26   16.998247 -545.517550    0.000000
siesta:     27    4.181926   -2.731255    0.000000
siesta:     28    2.896423    1.827455    0.000000
siesta:     29   -1.765079    0.711753    0.000000
siesta:     30   18.749877  547.628315    0.000000
siesta:     31    4.184211 -130.936766    0.000000
siesta:     32   34.680613  395.622783    0.000000
siesta:     33   22.470710    0.203933    0.000000
siesta:     34   -3.077514   -3.096608    0.000000
siesta:     35    1.533298    0.360269    0.000000
siesta:     36   -0.477394   -0.626742    0.000000
siesta:     37    1.583581   -2.182123    0.000000
siesta:     38    0.547294    6.485109    0.000000
siesta:     39   -0.745632   -6.701249    0.000000
siesta:     40  -18.941815  406.019986    0.000000
siesta:     41   -4.960001 -122.935073    0.000000
siesta:     42   -1.523273  402.514237    0.000000
siesta:     43    0.003187 -131.816449    0.000000
siesta:     44   25.118328  563.780841    0.000000
siesta:     45   21.719229   -5.915821    0.000000
siesta:     46   -0.749558    1.545017    0.000000
siesta:     47   -0.075879   -0.403741    0.000000
siesta:     48   -0.074896    0.691558    0.000000
siesta:     49   -0.067313   -0.362757    0.000000
siesta:     50  -34.193354  395.537495    0.000000
siesta:     51  -22.326430   -0.360071    0.000000
siesta:     52  -24.386775  563.340881    0.000000
siesta:     53  -22.172365   -6.056873    0.000000
siesta:     54   -0.614372  563.544185    0.000000
siesta:     55    0.437393    1.469351    0.000000
siesta:     56    0.199439   -4.259624    0.000000
siesta:     57    2.735596   -2.559944    0.000000
siesta:     58   -1.538789   -1.234111    0.000000
siesta:     59    1.482121   -2.027749    0.000000
siesta:     60    3.428718    0.985596    0.000000
siesta:     61    0.790273   -2.406729    0.000000
siesta:     62    1.412343   -0.026156    0.000000
siesta:     63   -5.428844   -2.280418    0.000000
siesta:     64   -1.766847    5.413166    0.000000
siesta:     65    0.866960   -5.748175    0.000000
siesta:     66   -7.204265   -0.200798    0.000000
siesta:     67    2.908218    1.182154    0.000000
siesta:     68   -0.960692   -1.309002    0.000000
siesta:     69   20.929350    2.504601    0.000000
siesta:     70   22.300445 -547.071463    0.000000
siesta:     71   -0.073854  126.083648    0.000000
siesta:     72    0.226041 -549.841812    0.000000
siesta: ----------------------------------------
siesta:    Tot   -0.083803    0.109315    0.000000

siesta: Stress tensor (static) (eV/Ang**3):
siesta:    -0.442829    0.002844    0.000000
siesta:     0.002844   -1.599639    0.000000
siesta:     0.000000    0.000000   -0.000412

siesta: Cell volume =       1893.226884 Ang**3

siesta: Pressure (static):
siesta:                Solid            Molecule  Units
siesta:           0.00741652          0.10549256  Ry/Bohr**3
siesta:           0.68095991          9.68596849  eV/Ang**3
siesta:        1091.02984810      15518.80013245  kBar
(Free)E+ p_basis*V_orbitals  =       -9140.308289
(Free)Eharris+ p_basis*V_orbitals  =       -9140.311483

siesta: Electric dipole (a.u.)  =    0.000000    0.000000    0.000000
siesta: Electric dipole (Debye) =    0.000000    0.000000    0.000000

* Maximum dynamic memory allocated : Node    0 =   254 MB
* Maximum dynamic memory allocated : Node    1 =    88 MB
* Maximum dynamic memory allocated : Node    2 =    90 MB
* Maximum dynamic memory allocated : Node    3 =   239 MB
* Maximum dynamic memory allocated : Node    4 =   219 MB
* Maximum dynamic memory allocated : Node    5 =    80 MB
* Maximum dynamic memory allocated : Node    6 =    83 MB
* Maximum dynamic memory allocated : Node    7 =   203 MB

* Maximum memory occured during matrixMtoO                    

timer: CPU execution times:
timer:  Routine       Calls   Time/call    Tot.time        %
timer:  siesta            1  173214.466  173214.466   100.00
timer:  Setup             1       3.058       3.058     0.00
timer:  bands             3     269.569     808.707     0.47
timer:  writewave         1       0.019       0.019     0.00
timer:  KSV_init          1       0.003       0.003     0.00
timer:  IterMD            1  172396.854  172396.854    99.53
timer:  hsparse           1       0.395       0.395     0.00
timer:  overlap           1       7.804       7.804     0.00
timer:  IterSCF          39    4413.998  172145.931    99.38
timer:  kinefsm           2       4.039       8.078     0.00
timer:  nlefsm            2      21.781      43.562     0.03
timer:  DHSCF            40     135.793    5431.707     3.14
timer:  DHSCF1            1       0.995       0.995     0.00
timer:  DHSCF2            1      47.416      47.416     0.03
timer:  REORD           322       0.010       3.292     0.00
timer:  POISON           41       2.241      91.873     0.05
timer:  DHSCF3           40     133.425    5336.998     3.08
timer:  rhoofd           40      26.543    1061.725     0.61
timer:  cellXC           40       3.507     140.265     0.08
timer:  vmat             40      65.523    2620.913     1.51
timer:  MolMec            2       0.001       0.002     0.00
timer:  diagon           39    4277.043  166804.691    96.30
timer:  c-eigval       9130       6.683   61015.584    35.23
timer:  c-buildHS      9130       0.123    1121.564     0.65
timer:  cdiag         18139       6.886  124899.097    72.11
timer:  cdiag1        18139       0.428    7766.671     4.48
timer:  cdiag2        18139       1.909   34620.592    19.99
timer:  cdiag3        18139       3.945   71566.199    41.32
timer:  cdiag4        18139       0.226    4103.281     2.37
timer:  c-eigvec       9009       7.290   65674.310    37.92
timer:  c-buildD       9009       4.537   40876.242    23.60
timer:  DHSCF4            1      44.191      44.191     0.03
timer:  dfscf             1      41.500      41.500     0.02
timer:  overfsm           1       0.484       0.484     0.00
timer:  optical           1       5.105       5.105     0.00
  

elaps: ELAPSED times:
elaps:  Routine       Calls   Time/call    Tot.time        %
elaps:  siesta            1   21677.545   21677.545   100.00
elaps:  Setup             1       0.381       0.381     0.00
elaps:  bands             3      33.747     101.242     0.47
elaps:  writewave         1       0.002       0.002     0.00
elaps:  KSV_init          1       0.000       0.000     0.00
elaps:  IterMD            1   21575.248   21575.248    99.53
elaps:  hsparse           1       0.052       0.052     0.00
elaps:  overlap           1       0.982       0.982     0.00
elaps:  IterSCF          39     552.407   21543.858    99.38
elaps:  kinefsm           2       0.513       1.026     0.00
elaps:  nlefsm            2       2.745       5.490     0.03
elaps:  DHSCF            40      17.143     685.713     3.16
elaps:  DHSCF1            1       0.129       0.129     0.00
elaps:  DHSCF2            1       5.921       5.921     0.03
elaps:  REORD           322       0.001       0.432     0.00
elaps:  POISON           41       0.280      11.478     0.05
elaps:  DHSCF3           40      16.692     667.669     3.08
elaps:  rhoofd           40       7.722     308.869     1.42
elaps:  cellXC           40       0.438      17.512     0.08
elaps:  vmat             40       8.196     327.860     1.51
elaps:  MolMec            2       0.000       0.000     0.00
elaps:  diagon           39     535.298   20876.637    96.31
elaps:  c-eigval       9130       0.836    7634.098    35.22
elaps:  c-buildHS      9130       0.017     154.429     0.71
elaps:  cdiag         18139       0.848   15374.584    70.92
elaps:  cdiag1        18139       0.053     964.864     4.45
elaps:  cdiag2        18139       0.239    4331.834    19.98
elaps:  cdiag3        18139       0.494    8966.664    41.36
elaps:  cdiag4        18139       0.028     516.178     2.38
elaps:  c-eigvec       9009       0.888    7997.019    36.89
elaps:  c-buildD       9009       0.593    5339.696    24.63
elaps:  DHSCF4            1      11.710      11.710     0.05
elaps:  dfscf             1      11.155      11.155     0.05
elaps:  overfsm           1       0.065       0.065     0.00
elaps:  optical           1       0.000       0.000     0.00
  
>> End of run:  25-APR-2016  18:15:37
