Siesta Version:                                        siesta-3.2-pl-3
Architecture  : x86_64-unknown-linux-gnu--unknown
Compiler flags: mpiifort -g -O2 -fPIC -xSSE4.1 -fp-model source -shared-intel 
PARALLEL version

* Running on    8 nodes in parallel
>> Start of run:  19-APR-2016  21:24:58

                           ***********************       
                           *  WELCOME TO SIESTA  *       
                           ***********************       

reinit: Reading from standard input
************************** Dump of input data file ****************************
#(1) General system descriptors
SystemName            GRP_doping    # Descriptive name of the system
SystemLabel           GRP_doping    # Short name for naming files
%include STRUCT.fdf
%include KPT.fdf
%include BASIS.fdf
#%include TS.fdf # for transiesta calculation
#(4) DFT, Grid, SCF
XC.functional         GGA           # LDA or GGA (default = LDA)
XC.authors            PBE           # CA (Ceperley-Aldr) = PZ
                                    #    (Perdew-Zunger) - LDA - Default
                                    # PW92 (Perdew-Wang-92) - LDA
                                    # PBE (Perdew-Burke-Ernzerhof) - GGA
MeshCutoff            200.000000    Ry      # Default: 50.0 Ry ~ 0.444 Bohr
                                    #         100.0 Ry ~ 0.314 Bohr
MaxSCFIterations      500           # Default: 50
DM.MixingWeight       0.05          # Default: 0.25
DM.NumberPulay        10            # Default: 0
DM.PulayOnFile        F             # SystemLabel.P1, SystemLabel.P2
DM.Tolerance          1.d-4         # Default: 1.d-4
DM.UseSaveDM          .true.        # because of the bug
SCFMustConverge       .true.
NeglNonOverlapInt     F             # Default: F
#(5) Eigenvalue problem: order-N or diagonalization
SolutionMethod        Diagon        # or Transiesta
ElectronicTemperature 300.0 K       # Default: 300.0 K
#(6) Molecular dynamics and relaxations
#MD.TypeOfRun          CG            # Type of dynamics:
#MD.VariableCell       F
#MD.NumCGsteps         0           # 0 for single-point / 100 for gopt
#MD.MaxCGDispl         0.2 Bohr      # Default: 0.2 Bohr
#MD.MaxForceTol        0.02 eV/Ang   # Default: 0.04 eV/Ang
#MD.MaxStressTol       1.0 GPa       # Default: 1.0 GPa
# Geometry Constraints
#%block GeometryConstraints
#	position from 1 to 44
#%endblock GeometryConstraints
BandLinesScale   pi/a
%block BandLines
 1   0.00000000  0.00000000  0.00000000
50   0.00000000  0.07809418  0.00000000
50   0.04509075  0.07809242  0.00000000
20   0.00000000  0.00000000  0.00000000
%endblock BandLines
************************** End of input data file *****************************

reinit: -----------------------------------------------------------------------
reinit: System Name: GRP_doping
reinit: -----------------------------------------------------------------------
reinit: System Label: GRP_doping                                                  
reinit: -----------------------------------------------------------------------

initatom: Reading input for the pseudopotentials and atomic orbitals ----------
 Species number:            1  Label: N Atomic number:           7
 Species number:            2  Label: C Atomic number:           6
Ground state valence configuration:   2s02  2p03
Reading pseudopotential information in formatted form from N.psf

Valence configuration for pseudopotential generation:
2s( 2.00) rc: 1.48
2p( 3.00) rc: 1.48
3d( 0.00) rc: 1.48
4f( 0.00) rc: 1.48
Ground state valence configuration:   2s02  2p02
Reading pseudopotential information in formatted form from C.psf

Valence configuration for pseudopotential generation:
2s( 2.00) rc: 1.54
2p( 2.00) rc: 1.54
3d( 0.00) rc: 1.54
4f( 0.00) rc: 1.54
For N, standard SIESTA heuristics set lmxkb to 3
 (one more than the basis l, including polarization orbitals).
Use PS.lmax or PS.KBprojectors blocks to override.
For C, standard SIESTA heuristics set lmxkb to 3
 (one more than the basis l, including polarization orbitals).
Use PS.lmax or PS.KBprojectors blocks to override.

<basis_specs>
===============================================================================
N                    Z=   7    Mass=  14.010        Charge= 0.17977+309
Lmxo=1 Lmxkb= 3    BasisType=split      Semic=F
L=0  Nsemic=0  Cnfigmx=2
          n=1  nzeta=2  polorb=0
            splnorm:   0.15000    
               vcte:    0.0000    
               rinn:    0.0000    
                rcs:    0.0000      0.0000    
            lambdas:    1.0000      1.0000    
L=1  Nsemic=0  Cnfigmx=2
          n=1  nzeta=2  polorb=1
            splnorm:   0.15000    
               vcte:    0.0000    
               rinn:    0.0000    
                rcs:    0.0000      0.0000    
            lambdas:    1.0000      1.0000    
-------------------------------------------------------------------------------
L=0  Nkbl=1  erefs: 0.17977+309
L=1  Nkbl=1  erefs: 0.17977+309
L=2  Nkbl=1  erefs: 0.17977+309
L=3  Nkbl=1  erefs: 0.17977+309
===============================================================================
</basis_specs>

atom: Called for N                     (Z =   7)

read_vps: Pseudopotential generation method:
read_vps: ATM3      Troullier-Martins                       
Total valence charge:    5.00000

read_vps: Pseudopotential includes a core correction:
read_vps: Pseudo-core for xc-correction

xc_check: Exchange-correlation functional:
xc_check: GGA Perdew, Burke & Ernzerhof 1996
V l=0 = -2*Zval/r beyond r=  1.4606
V l=1 = -2*Zval/r beyond r=  1.4606
V l=2 = -2*Zval/r beyond r=  1.4606
V l=3 = -2*Zval/r beyond r=  1.4606
All V_l potentials equal beyond r=  1.4606
This should be close to max(r_c) in ps generation
All pots = -2*Zval/r beyond r=  1.4606

VLOCAL1: 99.0% of the norm of Vloc inside     20.347 Ry
VLOCAL1: 99.9% of the norm of Vloc inside     46.372 Ry
atom: Maximum radius for 4*pi*r*r*local-pseudopot. charge    1.76189
atom: Maximum radius for r*vlocal+2*Zval:    1.53550
GHOST: No ghost state for L =  0
GHOST: No ghost state for L =  1
GHOST: No ghost state for L =  2
GHOST: No ghost state for L =  3

KBgen: Kleinman-Bylander projectors: 
   l= 0   rc=  1.634559   el= -1.363963   Ekb=  5.296955   kbcos=  0.335621
   l= 1   rc=  1.614250   el= -0.521451   Ekb= -5.259161   kbcos= -0.433408
   l= 2   rc=  1.718383   el=  0.001991   Ekb= -1.271464   kbcos= -0.007566
   l= 3   rc=  1.761893   el=  0.003093   Ekb= -0.494769   kbcos= -0.001015

KBgen: Total number of  Kleinman-Bylander projectors:   16
atom: -------------------------------------------------------------------------

atom: SANKEY-TYPE ORBITALS:
atom: Selected multiple-zeta basis: split     

SPLIT: Orbitals with angular momentum L= 0

SPLIT: Basis orbitals for state 2s

SPLIT: PAO cut-off radius determined from an
SPLIT: energy shift=  0.007350 Ry

   izeta = 1
                 lambda =    1.000000
                     rc =    4.071465
                 energy =   -1.356470
                kinetic =    1.176977
    potential(screened) =   -2.533447
       potential(ionic) =   -8.057990

   izeta = 2
                 rmatch =    2.905100
              splitnorm =    0.150000
                 energy =   -1.158343
                kinetic =    1.813009
    potential(screened) =   -2.971352
       potential(ionic) =   -8.901931

SPLIT: Orbitals with angular momentum L= 1

SPLIT: Basis orbitals for state 2p

SPLIT: PAO cut-off radius determined from an
SPLIT: energy shift=  0.007350 Ry

   izeta = 1
                 lambda =    1.000000
                     rc =    4.972977
                 energy =   -0.513884
                kinetic =    3.441732
    potential(screened) =   -3.955616
       potential(ionic) =   -9.287901

   izeta = 2
                 rmatch =    3.054066
              splitnorm =    0.150000
                 energy =   -0.318226
                kinetic =    5.125348
    potential(screened) =   -5.443573
       potential(ionic) =  -11.380999

POLgen: Perturbative polarization orbital with L=  2

POLgen: Polarization orbital for state 2p

   izeta = 1
                     rc =    4.972977
                 energy =    1.607437
                kinetic =    3.268125
    potential(screened) =   -1.660688
       potential(ionic) =   -5.973652
atom: Total number of Sankey-type orbitals: 13

atm_pop: Valence configuration (for local Pseudopot. screening):
 2s( 2.00)                                                            
 2p( 3.00)                                                            
Vna: chval, zval:    5.00000   5.00000

Vna:  Cut-off radius for the neutral-atom potential:   4.972977
comcore: Pseudo-core radius Rcore=  1.554824

atom: _________________________________________________________________________

<basis_specs>
===============================================================================
C                    Z=   6    Mass=  12.010        Charge= 0.17977+309
Lmxo=1 Lmxkb= 3    BasisType=split      Semic=F
L=0  Nsemic=0  Cnfigmx=2
          n=1  nzeta=2  polorb=0
            splnorm:   0.15000    
               vcte:    0.0000    
               rinn:    0.0000    
                rcs:    0.0000      0.0000    
            lambdas:    1.0000      1.0000    
L=1  Nsemic=0  Cnfigmx=2
          n=1  nzeta=2  polorb=1
            splnorm:   0.15000    
               vcte:    0.0000    
               rinn:    0.0000    
                rcs:    0.0000      0.0000    
            lambdas:    1.0000      1.0000    
-------------------------------------------------------------------------------
L=0  Nkbl=1  erefs: 0.17977+309
L=1  Nkbl=1  erefs: 0.17977+309
L=2  Nkbl=1  erefs: 0.17977+309
L=3  Nkbl=1  erefs: 0.17977+309
===============================================================================
</basis_specs>

atom: Called for C                     (Z =   6)

read_vps: Pseudopotential generation method:
read_vps: ATM3      Troullier-Martins                       
Total valence charge:    4.00000

read_vps: Pseudopotential includes a core correction:
read_vps: Pseudo-core for xc-correction

xc_check: Exchange-correlation functional:
xc_check: GGA Perdew, Burke & Ernzerhof 1996
V l=0 = -2*Zval/r beyond r=  1.5227
V l=1 = -2*Zval/r beyond r=  1.5227
V l=2 = -2*Zval/r beyond r=  1.5227
V l=3 = -2*Zval/r beyond r=  1.5038
All V_l potentials equal beyond r=  1.5227
This should be close to max(r_c) in ps generation
All pots = -2*Zval/r beyond r=  1.5227

VLOCAL1: 99.0% of the norm of Vloc inside     18.722 Ry
VLOCAL1: 99.9% of the norm of Vloc inside     42.668 Ry
atom: Maximum radius for 4*pi*r*r*local-pseudopot. charge    1.83678
atom: Maximum radius for r*vlocal+2*Zval:    1.58088
GHOST: No ghost state for L =  0
GHOST: No ghost state for L =  1
GHOST: No ghost state for L =  2
GHOST: No ghost state for L =  3

KBgen: Kleinman-Bylander projectors: 
   l= 0   rc=  1.704034   el= -1.009801   Ekb=  5.335044   kbcos=  0.316824
   l= 1   rc=  1.704034   el= -0.388707   Ekb= -3.785862   kbcos= -0.366464
   l= 2   rc=  1.791422   el=  0.001971   Ekb= -0.970471   kbcos= -0.009212
   l= 3   rc=  1.859892   el=  0.003065   Ekb= -0.399525   kbcos= -0.001223

KBgen: Total number of  Kleinman-Bylander projectors:   16
atom: -------------------------------------------------------------------------

atom: SANKEY-TYPE ORBITALS:
atom: Selected multiple-zeta basis: split     

SPLIT: Orbitals with angular momentum L= 0

SPLIT: Basis orbitals for state 2s

SPLIT: PAO cut-off radius determined from an
SPLIT: energy shift=  0.007350 Ry

   izeta = 1
                 lambda =    1.000000
                     rc =    4.632753
                 energy =   -1.002270
                kinetic =    0.855760
    potential(screened) =   -1.858031
       potential(ionic) =   -5.417575

   izeta = 2
                 rmatch =    3.431921
              splitnorm =    0.150000
                 energy =   -0.867111
                kinetic =    1.300804
    potential(screened) =   -2.167915
       potential(ionic) =   -5.962684

SPLIT: Orbitals with angular momentum L= 1

SPLIT: Basis orbitals for state 2p

SPLIT: PAO cut-off radius determined from an
SPLIT: energy shift=  0.007350 Ry

   izeta = 1
                 lambda =    1.000000
                     rc =    5.658549
                 energy =   -0.381140
                kinetic =    2.399701
    potential(screened) =   -2.780841
       potential(ionic) =   -6.206085

   izeta = 2
                 rmatch =    3.653288
              splitnorm =    0.150000
                 energy =   -0.249149
                kinetic =    3.542762
    potential(screened) =   -3.791911
       potential(ionic) =   -7.581078

POLgen: Perturbative polarization orbital with L=  2

POLgen: Polarization orbital for state 2p

   izeta = 1
                     rc =    5.658549
                 energy =    1.109913
                kinetic =    2.304789
    potential(screened) =   -1.194876
       potential(ionic) =   -4.013592
atom: Total number of Sankey-type orbitals: 13

atm_pop: Valence configuration (for local Pseudopot. screening):
 2s( 2.00)                                                            
 2p( 2.00)                                                            
Vna: chval, zval:    4.00000   4.00000

Vna:  Cut-off radius for the neutral-atom potential:   5.658549
comcore: Pseudo-core radius Rcore=  1.791422

atom: _________________________________________________________________________

prinput: Basis input ----------------------------------------------------------

PAO.BasisType split     

%block ChemicalSpeciesLabel
    1    7 N                       # Species index, atomic number, species label
    2    6 C                       # Species index, atomic number, species label
%endblock ChemicalSpeciesLabel

%block PAO.Basis                 # Define Basis set
N                     2                    # Species label, number of l-shells
 n=2   0   2                         # n, l, Nzeta 
   4.071      2.905   
   1.000      1.000   
 n=2   1   2 P   1                   # n, l, Nzeta, Polarization, NzetaPol
   4.973      3.054   
   1.000      1.000   
C                     2                    # Species label, number of l-shells
 n=2   0   2                         # n, l, Nzeta 
   4.633      3.432   
   1.000      1.000   
 n=2   1   2 P   1                   # n, l, Nzeta, Polarization, NzetaPol
   5.659      3.653   
   1.000      1.000   
%endblock PAO.Basis

prinput: ----------------------------------------------------------------------

coor:   Atomic-coordinates input format  =     Fractional

siesta: Atomic coordinates (Bohr) and species
siesta:     -0.02582   2.59549   0.00000  1        1
siesta:     -0.02582   5.28395   0.00000  1        2
siesta:     -2.35420  41.57980   0.00000  1        3
siesta:     -4.68258  34.85847   0.00000  1        4
siesta:     -4.68258  37.54693   0.00000  1        5
siesta:      2.30256   6.62836   0.00000  1        6
siesta:      2.30256   9.31683   0.00000  1        7
siesta:     -2.35420   6.62836   0.00000  1        8
siesta:     -2.35420   9.31683   0.00000  1        9
siesta:     -0.02582  10.66124   0.00000  1       10
siesta:     -0.02582  13.34970   0.00000  1       11
siesta:     -2.35420  14.69411   0.00000  1       12
siesta:     -2.35420  17.38257   0.00000  1       13
siesta:     -0.02582  18.72698   0.00000  1       14
siesta:     -0.02582  21.41544   0.00000  1       15
siesta:     -4.68258  18.72698   0.00000  1       16
siesta:     -4.68258  21.41544   0.00000  1       17
siesta:     -2.35420  22.75985   0.00000  1       18
siesta:     -2.35420  25.44831   0.00000  1       19
siesta:     -4.68258  26.79272   0.00000  1       20
siesta:     -4.68258  29.48119   0.00000  1       21
siesta:     -2.35420  30.82560   0.00000  1       22
siesta:     -2.35420  33.51406   0.00000  1       23
siesta:     -7.01096  30.82560   0.00000  1       24
siesta:     -7.01096  33.51406   0.00000  1       25
siesta:     -0.02582  45.61267   0.00000  1       26
siesta:     -2.35420  38.89134   0.00000  2       27
siesta:      2.30256  38.89134   0.00000  2       28
siesta:      2.30256  41.57980   0.00000  2       29
siesta:      4.63094  34.85847   0.00000  2       30
siesta:      4.63094  37.54693   0.00000  2       31
siesta:      6.95932  30.82560   0.00000  2       32
siesta:      6.95932  33.51406   0.00000  2       33
siesta:      9.28770  26.79272   0.00000  2       34
siesta:      9.28770  29.48119   0.00000  2       35
siesta:      4.63094  10.66124   0.00000  2       36
siesta:      4.63094  13.34970   0.00000  2       37
siesta:      6.95932  14.69411   0.00000  2       38
siesta:      6.95932  17.38257   0.00000  2       39
siesta:      9.28770  18.72698   0.00000  2       40
siesta:      9.28770  21.41544   0.00000  2       41
siesta:     11.61608  22.75985   0.00000  2       42
siesta:     11.61608  25.44831   0.00000  2       43
siesta:      2.30256  14.69411   0.00000  2       44
siesta:      2.30256  17.38257   0.00000  2       45
siesta:      4.63094  18.72698   0.00000  2       46
siesta:      4.63094  21.41544   0.00000  2       47
siesta:      6.95932  22.75985   0.00000  2       48
siesta:      6.95932  25.44831   0.00000  2       49
siesta:     -4.68258  10.66124   0.00000  2       50
siesta:     -4.68258  13.34970   0.00000  2       51
siesta:      2.30256  22.75985   0.00000  2       52
siesta:      2.30256  25.44831   0.00000  2       53
siesta:     -7.01096  14.69411   0.00000  2       54
siesta:     -7.01096  17.38257   0.00000  2       55
siesta:     -9.33934  18.72698   0.00000  2       56
siesta:     -9.33934  21.41544   0.00000  2       57
siesta:     -7.01096  22.75985   0.00000  2       58
siesta:     -7.01096  25.44831   0.00000  2       59
siesta:    -11.66772  22.75985   0.00000  2       60
siesta:    -11.66772  25.44831   0.00000  2       61
siesta:     -9.33934  26.79272   0.00000  2       62
siesta:     -9.33934  29.48119   0.00000  2       63
siesta:      4.63094  26.79272   0.00000  2       64
siesta:      4.63094  29.48119   0.00000  2       65
siesta:     -0.02582  26.79272   0.00000  2       66
siesta:     -0.02582  29.48119   0.00000  2       67
siesta:      2.30256  30.82560   0.00000  2       68
siesta:      2.30256  33.51406   0.00000  2       69
siesta:     -0.02582  34.85847   0.00000  2       70
siesta:     -0.02582  37.54693   0.00000  2       71
siesta:     -0.02582  42.92421   0.00000  2       72

siesta: System type = slab      

initatomlists: Number of atoms, orbitals, and projectors:     72   936  1152

siesta: ******************** Simulation parameters ****************************
siesta:
siesta: The following are some of the parameters of the simulation.
siesta: A complete list of the parameters used, including default values,
siesta: can be found in file out.fdf
siesta:
redata: Non-Collinear-spin run           =     F
redata: SpinPolarized (Up/Down) run      =     F
redata: Number of spin components        =     1
redata: Long output                      =     F
redata: Number of Atomic Species         =        2
redata: Charge density info will appear in .RHO file
redata: Write Mulliken Pop.              =     NO
redata: Mesh Cutoff                      =   200.0000  Ry
redata: Net charge of the system         =     0.0000 |e|
redata: Max. number of SCF Iter          =      500
redata: SCF convergence failure will abort job
redata: Performing Pulay mixing using    =    10 iterations
redata: Mix DM in first SCF step ?       =     F
redata: Write Pulay info on disk?        =     F
redata: Discard 1st Pulay DM after  kick =     F
redata: New DM Mixing Weight             =     0.0500
redata: New DM Occupancy tolerance       = 0.000000000001
redata: No kicks to SCF
redata: DM Mixing Weight for Kicks       =     0.5000
redata: DM Tolerance for SCF             =     0.000100
redata: Require Energy convergence for SCF =     F
redata: DM Energy tolerance for SCF      =     0.000100 eV
redata: Require Harris convergence for SCF =     F
redata: DM Harris energy tolerance for SCF =     0.000100 eV
redata: Using Saved Data (generic)   =     F
redata: Use continuation files for DM    =     T
redata: Neglect nonoverlap interactions  =     F
redata: Method of Calculation            =     Diagonalization
redata: Divide and Conquer               =     T
redata: Electronic Temperature           =     0.0019  Ry
redata: Fix the spin of the system       =     F
redata: Dynamics option                  =     Verlet MD run
redata: Initial MD time step             =        1
redata:   Final MD time step             =        1
redata: Length of MD time step           =     1.0000  fs
redata: Initial Temperature of MD run    =     0.0000  K
redata: Perform a MD quench              =     F
redata: ***********************************************************************
Total number of electrons:   314.000000
Total ionic charge:   314.000000

* ProcessorY, Blocksize:    2  24

k-point displ. along   1 input, could be:     0.50    0.00
k-point displ. along   2 input, could be:     0.50    0.00
 Kpoints in:          231 . Kpoints trimmed:          231

siesta: k-grid: Number of k-points =   231
siesta: k-grid: Cutoff (effective) =     5.000 Ang
siesta: k-grid: Supercell and displacements
siesta: k-grid:   21   0   0      0.500
siesta: k-grid:    0  21   0      0.500
siesta: k-grid:    0   0   1      0.000
Naive supercell factors:     2    2    2

superc: Internal auxiliary supercell:     2 x     2 x     2  =       8
superc: Number of atoms, orbitals, and projectors:    576   7488   9216

* Maximum dynamic memory allocated =     4 MB

siesta:                 ==============================
                            Begin MD step =      1
                        ==============================

superc: Internal auxiliary supercell:     2 x     2 x     2  =       8
superc: Number of atoms, orbitals, and projectors:    576   7488   9216

outcell: Unit cell vectors (Ang):
       12.804619    7.392750    0.000000
        0.000000   14.785500    0.000000
        0.000000    0.000000   10.000000

outcell: Cell vector modules (Ang)   :   14.785500   14.785500   10.000000
outcell: Cell angles (23,13,12) (deg):     90.0000     90.0000     60.0000
outcell: Cell volume (Ang**3)        :   1893.2269
New_DM. Step:     1
Initializing Density Matrix...

InitMesh: MESH =   120 x   120 x    90 =     1296000
InitMesh: Mesh cutoff (required, used) =   200.000   223.865 Ry

* Maximum dynamic memory allocated =   178 MB

stepf: Fermi-Dirac step function

siesta: Program's energy decomposition (eV):
siesta: Ebs     =     -6474.358162
siesta: Eions   =     22582.429020
siesta: Ena     =      5025.801953
siesta: Ekin    =      8560.167659
siesta: Enl     =      -158.187016
siesta: DEna    =        -0.000015
siesta: DUscf   =         0.000000
siesta: DUext   =         0.000000
siesta: Exc     =     -4842.251284
siesta: eta*DQ  =         0.000000
siesta: Emadel  =         0.000000
siesta: Emeta   =         0.000000
siesta: Emolmec =         0.000000
siesta: Ekinion =         0.000000
siesta: Eharris =    -13539.037387
siesta: Etot    =    -13996.897723
siesta: FreeEng =    -13996.897723

siesta: iscf   Eharris(eV)      E_KS(eV)   FreeEng(eV)   dDmax  Ef(eV)
siesta:    1   -13539.0374   -13996.8977   -13996.8977  5.6149 -6.3336
timer: Routine,Calls,Time,% = IterSCF        1    3377.501  99.66
elaps: Routine,Calls,Wall,% = IterSCF        1     423.059  99.65
siesta:    2   -17053.2997   -12996.3689   -12996.3695 15.2105 -3.5151
siesta:    3   -13445.3241   -13802.3732   -13802.3739  2.5909 -5.0665
siesta:    4   -13422.0535   -13611.0495   -13611.1112  0.9532 -4.1964
siesta:    5   -13392.4739   -13526.0866   -13526.1250  0.8243 -3.8292
siesta:    6   -13388.5030   -13503.9810   -13504.0135  0.8852 -3.7757
siesta:    7   -13386.8804   -13493.5852   -13493.6140  0.8026 -3.7495
siesta:    8   -13384.8349   -13443.1434   -13443.1962  0.5452 -3.7070
siesta:    9   -13384.1251   -13428.4406   -13428.4840  0.4972 -3.7314
siesta:   10   -13383.2270   -13405.6219   -13405.6968  0.3493 -3.7535
siesta:   11   -13383.0810   -13385.4731   -13385.5494  0.3156 -3.6809
siesta:   12   -13383.1191   -13373.8674   -13373.9143  0.2673 -3.7179
siesta:   13   -13382.5807   -13369.6922   -13369.7424  0.1559 -3.6959
siesta:   14   -13382.3183   -13371.9687   -13372.0111  0.1529 -3.7373
siesta:   15   -13382.2210   -13371.6229   -13371.6939  0.0994 -3.7349
siesta:   16   -13382.1555   -13373.4853   -13373.5386  0.0789 -3.7512
siesta:   17   -13382.1230   -13375.9318   -13375.9914  0.0569 -3.7603
siesta:   18   -13382.1099   -13378.3731   -13378.4313  0.0482 -3.7637
siesta:   19   -13382.1079   -13379.9458   -13380.0089  0.0248 -3.7644
siesta:   20   -13382.1061   -13381.1330   -13381.1932  0.0199 -3.7620
siesta:   21   -13382.1013   -13381.4755   -13381.5348  0.0151 -3.7597
siesta:   22   -13382.1002   -13381.5124   -13381.5733  0.0125 -3.7567
siesta:   23   -13382.0993   -13381.6416   -13381.7027  0.0089 -3.7548
siesta:   24   -13382.0997   -13381.9462   -13382.0073  0.0048 -3.7530
siesta:   25   -13382.0995   -13382.1824   -13382.2428  0.0028 -3.7523
siesta:   26   -13382.0993   -13382.2491   -13382.3095  0.0027 -3.7522
siesta:   27   -13382.0991   -13382.1750   -13382.2355  0.0018 -3.7523
siesta:   28   -13382.0992   -13382.1243   -13382.1849  0.0012 -3.7522
siesta:   29   -13382.0992   -13382.0985   -13382.1591  0.0008 -3.7523
siesta:   30   -13382.0992   -13382.0936   -13382.1542  0.0008 -3.7524
siesta:   31   -13382.0992   -13382.0952   -13382.1557  0.0006 -3.7525
siesta:   32   -13382.0992   -13382.0834   -13382.1439  0.0003 -3.7526
siesta:   33   -13382.0992   -13382.0813   -13382.1418  0.0003 -3.7527
siesta:   34   -13382.0992   -13382.0795   -13382.1400  0.0001 -3.7527
siesta:   35   -13382.0992   -13382.0824   -13382.1429  0.0001 -3.7527
siesta:   36   -13382.0992   -13382.0880   -13382.1485  0.0001 -3.7527

siesta: E_KS(eV) =           -13382.0912

siesta: E_KS - E_eggbox =    -13382.0912

siesta: Atomic forces (eV/Ang):
----------------------------------------
   Tot   -0.185803   -0.012960    0.000000
----------------------------------------
   Max  782.906582
   Res  197.312435    sqrt( Sum f_i^2 / 3N )
----------------------------------------
   Max  782.906582    constrained

Stress-tensor-Voigt (kbar):     -654.42    -3586.53       -0.10        9.58        0.00        0.00
(Free)E + p*V (eV/cell)   -11711.6741
Target enthalpy (eV/cell)   -13382.1517

siesta: Stress tensor (static) (eV/Ang**3):
        -0.408454    0.005981    0.000000
         0.005980   -2.238513    0.000000
         0.000000    0.000000   -0.000065

siesta: Pressure (static):       1413.68641967  kBar

siesta: Stress tensor (total) (eV/Ang**3):
        -0.408454    0.005981    0.000000
         0.005980   -2.238513    0.000000
         0.000000    0.000000   -0.000065

siesta: Pressure (total):       1413.68641967  kBar

siesta: Temp_ion =       0.000 K

* Maximum dynamic memory allocated =   194 MB
Computing bands...

siesta: Program's energy decomposition (eV):
siesta: Ebs     =     -5243.946175
siesta: Eions   =     22582.429020
siesta: Ena     =      5025.801953
siesta: Ekin    =     11902.282475
siesta: Enl     =     -1963.426861
siesta: DEna    =      -850.884263
siesta: DUscf   =       116.310774
siesta: DUext   =         0.000000
siesta: Exc     =     -5029.746232
siesta: eta*DQ  =         0.000000
siesta: Emadel  =         0.000000
siesta: Emeta   =         0.000000
siesta: Emolmec =         0.000000
siesta: Ekinion =         0.000000
siesta: Eharris =    -13382.099198
siesta: Etot    =    -13382.091173
siesta: FreeEng =    -13382.151713

siesta: Final energy (eV):
siesta:  Band Struct. =   -5243.946175
siesta:       Kinetic =   11902.282475
siesta:       Hartree =   39301.858961
siesta:    Ext. field =       0.000000
siesta:   Exch.-corr. =   -5029.746232
siesta:  Ion-electron =  -90017.954079
siesta:       Ion-ion =   30461.467702
siesta:       Ekinion =       0.000000
siesta:         Total =  -13382.091173

siesta: Atomic forces (eV/Ang):
siesta:      1    0.238863  645.938210    0.000000
siesta:      2    0.749564 -114.766077    0.000000
siesta:      3  -24.005611 -755.817524    0.000000
siesta:      4  -32.885549    7.042325    0.000000
siesta:      5  -17.337558 -653.599987    0.000000
siesta:      6   21.557708  660.754797    0.000000
siesta:      7    0.879104 -105.654039    0.000000
siesta:      8  -25.946041  748.256813    0.000000
siesta:      9    3.407899 -111.392332    0.000000
siesta:     10   -5.938220  669.471664    0.000000
siesta:     11    9.865613 -110.824987    0.000000
siesta:     12   -1.314991  774.884460    0.000000
siesta:     13  -38.378571   -1.851463    0.000000
siesta:     14    4.452006  782.906582    0.000000
siesta:     15    2.306226   -0.260787    0.000000
siesta:     16   -1.332833    1.395264    0.000000
siesta:     17   -0.768196    0.686848    0.000000
siesta:     18   -1.823889    0.465356    0.000000
siesta:     19   -1.227334    2.070675    0.000000
siesta:     20    0.223673    0.026757    0.000000
siesta:     21   -0.211640   -2.234294    0.000000
siesta:     22  -32.778971    1.154747    0.000000
siesta:     23    4.342708 -775.124313    0.000000
siesta:     24   -5.140824    0.288087    0.000000
siesta:     25   -0.325647   -3.184268    0.000000
siesta:     26    6.017000 -745.019544    0.000000
siesta:     27    1.776594  109.641965    0.000000
siesta:     28    1.685484  120.995121    0.000000
siesta:     29   -4.446140 -551.745622    0.000000
siesta:     30   27.383896    2.842883    0.000000
siesta:     31   18.121112 -551.349864    0.000000
siesta:     32    2.062287    0.185909    0.000000
siesta:     33   -3.171395    1.263103    0.000000
siesta:     34    2.202287    2.695019    0.000000
siesta:     35   -1.213974   -0.046779    0.000000
siesta:     36   32.412901  554.876242    0.000000
siesta:     37   27.751929   -4.158855    0.000000
siesta:     38   -2.578640   -1.619624    0.000000
siesta:     39    2.086007   -0.146029    0.000000
siesta:     40   -1.598945   -0.084769    0.000000
siesta:     41    1.879665   -2.421789    0.000000
siesta:     42   -0.037166    7.806366    0.000000
siesta:     43   -0.388326   -7.880008    0.000000
siesta:     44   20.618053  564.090700    0.000000
siesta:     45   27.693837   -9.760876    0.000000
siesta:     46   -1.178109    3.042765    0.000000
siesta:     47   -0.567404   -0.717731    0.000000
siesta:     48   -0.031973    1.087226    0.000000
siesta:     49   -0.299650   -0.863371    0.000000
siesta:     50  -32.874997  661.641429    0.000000
siesta:     51  -29.679478   -7.998279    0.000000
siesta:     52    0.627693    1.294979    0.000000
siesta:     53   -0.718183   -1.340828    0.000000
siesta:     54    2.426824    0.257359    0.000000
siesta:     55   -1.965485   -0.619466    0.000000
siesta:     56    0.789072   -0.254973    0.000000
siesta:     57   -1.453723   -1.949692    0.000000
siesta:     58    1.600766    1.148965    0.000000
siesta:     59    0.513751   -1.344495    0.000000
siesta:     60    0.229510    6.663754    0.000000
siesta:     61    0.174757   -6.141224    0.000000
siesta:     62   -0.647081    1.756658    0.000000
siesta:     63    2.114361    2.661586    0.000000
siesta:     64    0.620784    0.270556    0.000000
siesta:     65   -1.525737   -3.030083    0.000000
siesta:     66   -0.533841    0.547431    0.000000
siesta:     67   12.994564 -685.652169    0.000000
siesta:     68   23.552703    1.080573    0.000000
siesta:     69    0.091380 -684.489204    0.000000
siesta:     70    7.328551  116.963390    0.000000
siesta:     71   -1.916570 -672.488294    0.000000
siesta:     72    3.277755  117.664118    0.000000
siesta: ----------------------------------------
siesta:    Tot   -0.185803   -0.012960    0.000000

siesta: Stress tensor (static) (eV/Ang**3):
siesta:    -0.408454    0.005981    0.000000
siesta:     0.005980   -2.238513    0.000000
siesta:     0.000000    0.000000   -0.000065

siesta: Cell volume =       1893.226884 Ang**3

siesta: Pressure (static):
siesta:                Solid            Molecule  Units
siesta:           0.00960985          0.15876969  Ry/Bohr**3
siesta:           0.88234412         14.57769344  eV/Ang**3
siesta:        1413.68641967      23356.29226232  kBar
(Free)E+ p_basis*V_orbitals  =      -13355.131149
(Free)Eharris+ p_basis*V_orbitals  =      -13355.142360

siesta: Electric dipole (a.u.)  =    0.000000    0.000000    0.000000
siesta: Electric dipole (Debye) =    0.000000    0.000000    0.000000

* Maximum dynamic memory allocated : Node    0 =   194 MB
* Maximum dynamic memory allocated : Node    1 =    69 MB
* Maximum dynamic memory allocated : Node    2 =    71 MB
* Maximum dynamic memory allocated : Node    3 =   186 MB
* Maximum dynamic memory allocated : Node    4 =   185 MB
* Maximum dynamic memory allocated : Node    5 =    70 MB
* Maximum dynamic memory allocated : Node    6 =    71 MB
* Maximum dynamic memory allocated : Node    7 =   170 MB

* Maximum memory occured during matrixMtoO                    

timer: CPU execution times:
timer:  Routine       Calls   Time/call    Tot.time        %
timer:  siesta            1  120256.131  120256.131   100.00
timer:  Setup             1       3.864       3.864     0.00
timer:  bands             3     243.680     731.041     0.61
timer:  writewave         1       0.047       0.047     0.00
timer:  KSV_init          1       0.006       0.006     0.00
timer:  IterMD            1  119515.996  119515.996    99.38
timer:  hsparse           1       0.281       0.281     0.00
timer:  overlap           1       7.114       7.114     0.01
timer:  IterSCF          36    3315.961  119374.610    99.27
timer:  kinefsm           2       3.664       7.327     0.01
timer:  nlefsm            2      17.125      34.250     0.03
timer:  DHSCF            37      69.291    2563.766     2.13
timer:  DHSCF1            1       0.747       0.747     0.00
timer:  DHSCF2            1      30.481      30.481     0.03
timer:  REORD           298       0.005       1.508     0.00
timer:  POISON           38       0.871      33.113     0.03
timer:  DHSCF3           37      67.703    2504.999     2.08
timer:  rhoofd           37      14.424     533.696     0.44
timer:  cellXC           37       3.263     120.748     0.10
timer:  vmat             37      31.276    1157.208     0.96
timer:  MolMec            2       0.000       0.000     0.00
timer:  diagon           36    3245.522  116838.783    97.16
timer:  c-eigval       8437       6.034   50910.935    42.34
timer:  c-buildHS      8437       0.047     397.054     0.33
timer:  cdiag         16753       6.151  103045.560    85.69
timer:  cdiag1        16753       0.385    6450.942     5.36
timer:  cdiag2        16753       1.768   29623.532    24.63
timer:  cdiag3        16753       3.740   62652.912    52.10
timer:  cdiag4        16753       0.152    2547.471     2.12
timer:  c-eigvec       8316       6.355   52844.562    43.94
timer:  c-buildD       8316       1.656   13772.053    11.45
timer:  DHSCF4            1      26.807      26.807     0.02
timer:  dfscf             1      24.967      24.967     0.02
timer:  overfsm           1       0.376       0.376     0.00
timer:  optical           1       4.609       4.609     0.00
  

elaps: ELAPSED times:
elaps:  Routine       Calls   Time/call    Tot.time        %
elaps:  siesta            1   15060.305   15060.305   100.00
elaps:  Setup             1       0.502       0.502     0.00
elaps:  bands             3      30.536      91.607     0.61
elaps:  writewave         1       0.006       0.006     0.00
elaps:  KSV_init          1       0.001       0.001     0.00
elaps:  IterMD            1   14967.590   14967.590    99.38
elaps:  hsparse           1       0.035       0.035     0.00
elaps:  overlap           1       0.901       0.901     0.01
elaps:  IterSCF          36     415.278   14949.996    99.27
elaps:  kinefsm           2       0.460       0.920     0.01
elaps:  nlefsm            2       2.175       4.350     0.03
elaps:  DHSCF            37       8.773     324.592     2.16
elaps:  DHSCF1            1       0.096       0.096     0.00
elaps:  DHSCF2            1       3.815       3.815     0.03
elaps:  REORD           298       0.001       0.199     0.00
elaps:  POISON           38       0.109       4.159     0.03
elaps:  DHSCF3           37       8.479     313.731     2.08
elaps:  rhoofd           37       4.021     148.775     0.99
elaps:  cellXC           37       0.408      15.111     0.10
elaps:  vmat             37       3.917     144.933     0.96
elaps:  MolMec            2       0.000       0.000     0.00
elaps:  diagon           36     406.447   14632.092    97.16
elaps:  c-eigval       8437       0.756    6375.668    42.33
elaps:  c-buildHS      8437       0.006      52.817     0.35
elaps:  cdiag         16753       0.769   12881.921    85.54
elaps:  cdiag1        16753       0.049     814.782     5.41
elaps:  cdiag2        16753       0.221    3710.671    24.64
elaps:  cdiag3        16753       0.469    7856.469    52.17
elaps:  cdiag4        16753       0.019     312.134     2.07
elaps:  c-eigvec       8316       0.793    6598.194    43.81
elaps:  c-buildD       8316       0.210    1744.048    11.58
elaps:  DHSCF4            1       6.859       6.859     0.05
elaps:  dfscf             1       6.469       6.469     0.04
elaps:  overfsm           1       0.047       0.047     0.00
elaps:  optical           1       0.001       0.001     0.00
  
>> End of run:  20-APR-2016   1:35:58
