Siesta Version:                                        siesta-3.2-pl-3
Architecture  : x86_64-unknown-linux-gnu--unknown
Compiler flags: mpiifort -g -O2 -fPIC -xSSE4.1 -fp-model source -shared-intel 
PARALLEL version

* Running on   12 nodes in parallel
>> Start of run:   7-MAY-2016  14:21:49

                           ***********************       
                           *  WELCOME TO SIESTA  *       
                           ***********************       

reinit: Reading from standard input
************************** Dump of input data file ****************************
#(1) General system descriptors
SystemName            GRP_doping    # Descriptive name of the system
SystemLabel           GRP_doping    # Short name for naming files
%include STRUCT.fdf
%include KPT.fdf
%include BASIS.fdf
#%include TS.fdf # for transiesta calculation
#(4) DFT, Grid, SCF
XC.functional         GGA           # LDA or GGA (default = LDA)
XC.authors            PBE           # CA (Ceperley-Aldr) = PZ
                                    #    (Perdew-Zunger) - LDA - Default
                                    # PW92 (Perdew-Wang-92) - LDA
                                    # PBE (Perdew-Burke-Ernzerhof) - GGA
MeshCutoff            200.000000    Ry      # Default: 50.0 Ry ~ 0.444 Bohr
                                    #         100.0 Ry ~ 0.314 Bohr
MaxSCFIterations      500           # Default: 50
DM.MixingWeight       0.05          # Default: 0.25
DM.NumberPulay        10            # Default: 0
DM.PulayOnFile        F             # SystemLabel.P1, SystemLabel.P2
DM.Tolerance          1.d-4         # Default: 1.d-4
DM.UseSaveDM          .true.        # because of the bug
SCFMustConverge       .true.
NeglNonOverlapInt     F             # Default: F
#(5) Eigenvalue problem: order-N or diagonalization
SolutionMethod        Diagon        # or Transiesta
ElectronicTemperature 300.0 K       # Default: 300.0 K
#(6) Molecular dynamics and relaxations
#MD.TypeOfRun          CG            # Type of dynamics:
#MD.VariableCell       F
#MD.NumCGsteps         0           # 0 for single-point / 100 for gopt
#MD.MaxCGDispl         0.2 Bohr      # Default: 0.2 Bohr
#MD.MaxForceTol        0.02 eV/Ang   # Default: 0.04 eV/Ang
#MD.MaxStressTol       1.0 GPa       # Default: 1.0 GPa
# Geometry Constraints
#%block GeometryConstraints
#	position from 1 to 44
#%endblock GeometryConstraints
BandLinesScale   pi/a
%block BandLines
 1   0.00000000  0.00000000  0.00000000
50   0.00000000  0.07809418  0.00000000
50   0.04509075  0.07809242  0.00000000
20   0.00000000  0.00000000  0.00000000
%endblock BandLines
************************** End of input data file *****************************

reinit: -----------------------------------------------------------------------
reinit: System Name: GRP_doping
reinit: -----------------------------------------------------------------------
reinit: System Label: GRP_doping                                                  
reinit: -----------------------------------------------------------------------

initatom: Reading input for the pseudopotentials and atomic orbitals ----------
 Species number:            1  Label: N Atomic number:           7
 Species number:            2  Label: C Atomic number:           6
Ground state valence configuration:   2s02  2p03
Reading pseudopotential information in formatted form from N.psf

Valence configuration for pseudopotential generation:
2s( 2.00) rc: 1.48
2p( 3.00) rc: 1.48
3d( 0.00) rc: 1.48
4f( 0.00) rc: 1.48
Ground state valence configuration:   2s02  2p02
Reading pseudopotential information in formatted form from C.psf

Valence configuration for pseudopotential generation:
2s( 2.00) rc: 1.54
2p( 2.00) rc: 1.54
3d( 0.00) rc: 1.54
4f( 0.00) rc: 1.54
For N, standard SIESTA heuristics set lmxkb to 3
 (one more than the basis l, including polarization orbitals).
Use PS.lmax or PS.KBprojectors blocks to override.
For C, standard SIESTA heuristics set lmxkb to 3
 (one more than the basis l, including polarization orbitals).
Use PS.lmax or PS.KBprojectors blocks to override.

<basis_specs>
===============================================================================
N                    Z=   7    Mass=  14.010        Charge= 0.17977+309
Lmxo=1 Lmxkb= 3    BasisType=split      Semic=F
L=0  Nsemic=0  Cnfigmx=2
          n=1  nzeta=2  polorb=0
            splnorm:   0.15000    
               vcte:    0.0000    
               rinn:    0.0000    
                rcs:    0.0000      0.0000    
            lambdas:    1.0000      1.0000    
L=1  Nsemic=0  Cnfigmx=2
          n=1  nzeta=2  polorb=1
            splnorm:   0.15000    
               vcte:    0.0000    
               rinn:    0.0000    
                rcs:    0.0000      0.0000    
            lambdas:    1.0000      1.0000    
-------------------------------------------------------------------------------
L=0  Nkbl=1  erefs: 0.17977+309
L=1  Nkbl=1  erefs: 0.17977+309
L=2  Nkbl=1  erefs: 0.17977+309
L=3  Nkbl=1  erefs: 0.17977+309
===============================================================================
</basis_specs>

atom: Called for N                     (Z =   7)

read_vps: Pseudopotential generation method:
read_vps: ATM3      Troullier-Martins                       
Total valence charge:    5.00000

read_vps: Pseudopotential includes a core correction:
read_vps: Pseudo-core for xc-correction

xc_check: Exchange-correlation functional:
xc_check: GGA Perdew, Burke & Ernzerhof 1996
V l=0 = -2*Zval/r beyond r=  1.4606
V l=1 = -2*Zval/r beyond r=  1.4606
V l=2 = -2*Zval/r beyond r=  1.4606
V l=3 = -2*Zval/r beyond r=  1.4606
All V_l potentials equal beyond r=  1.4606
This should be close to max(r_c) in ps generation
All pots = -2*Zval/r beyond r=  1.4606

VLOCAL1: 99.0% of the norm of Vloc inside     20.347 Ry
VLOCAL1: 99.9% of the norm of Vloc inside     46.372 Ry
atom: Maximum radius for 4*pi*r*r*local-pseudopot. charge    1.76189
atom: Maximum radius for r*vlocal+2*Zval:    1.53550
GHOST: No ghost state for L =  0
GHOST: No ghost state for L =  1
GHOST: No ghost state for L =  2
GHOST: No ghost state for L =  3

KBgen: Kleinman-Bylander projectors: 
   l= 0   rc=  1.634559   el= -1.363963   Ekb=  5.296955   kbcos=  0.335621
   l= 1   rc=  1.614250   el= -0.521451   Ekb= -5.259161   kbcos= -0.433408
   l= 2   rc=  1.718383   el=  0.001991   Ekb= -1.271464   kbcos= -0.007566
   l= 3   rc=  1.761893   el=  0.003093   Ekb= -0.494769   kbcos= -0.001015

KBgen: Total number of  Kleinman-Bylander projectors:   16
atom: -------------------------------------------------------------------------

atom: SANKEY-TYPE ORBITALS:
atom: Selected multiple-zeta basis: split     

SPLIT: Orbitals with angular momentum L= 0

SPLIT: Basis orbitals for state 2s

SPLIT: PAO cut-off radius determined from an
SPLIT: energy shift=  0.007350 Ry

   izeta = 1
                 lambda =    1.000000
                     rc =    4.071465
                 energy =   -1.356470
                kinetic =    1.176977
    potential(screened) =   -2.533447
       potential(ionic) =   -8.057990

   izeta = 2
                 rmatch =    2.905100
              splitnorm =    0.150000
                 energy =   -1.158343
                kinetic =    1.813009
    potential(screened) =   -2.971352
       potential(ionic) =   -8.901931

SPLIT: Orbitals with angular momentum L= 1

SPLIT: Basis orbitals for state 2p

SPLIT: PAO cut-off radius determined from an
SPLIT: energy shift=  0.007350 Ry

   izeta = 1
                 lambda =    1.000000
                     rc =    4.972977
                 energy =   -0.513884
                kinetic =    3.441732
    potential(screened) =   -3.955616
       potential(ionic) =   -9.287901

   izeta = 2
                 rmatch =    3.054066
              splitnorm =    0.150000
                 energy =   -0.318226
                kinetic =    5.125348
    potential(screened) =   -5.443573
       potential(ionic) =  -11.380999

POLgen: Perturbative polarization orbital with L=  2

POLgen: Polarization orbital for state 2p

   izeta = 1
                     rc =    4.972977
                 energy =    1.607437
                kinetic =    3.268125
    potential(screened) =   -1.660688
       potential(ionic) =   -5.973652
atom: Total number of Sankey-type orbitals: 13

atm_pop: Valence configuration (for local Pseudopot. screening):
 2s( 2.00)                                                            
 2p( 3.00)                                                            
Vna: chval, zval:    5.00000   5.00000

Vna:  Cut-off radius for the neutral-atom potential:   4.972977
comcore: Pseudo-core radius Rcore=  1.554824

atom: _________________________________________________________________________

<basis_specs>
===============================================================================
C                    Z=   6    Mass=  12.010        Charge= 0.17977+309
Lmxo=1 Lmxkb= 3    BasisType=split      Semic=F
L=0  Nsemic=0  Cnfigmx=2
          n=1  nzeta=2  polorb=0
            splnorm:   0.15000    
               vcte:    0.0000    
               rinn:    0.0000    
                rcs:    0.0000      0.0000    
            lambdas:    1.0000      1.0000    
L=1  Nsemic=0  Cnfigmx=2
          n=1  nzeta=2  polorb=1
            splnorm:   0.15000    
               vcte:    0.0000    
               rinn:    0.0000    
                rcs:    0.0000      0.0000    
            lambdas:    1.0000      1.0000    
-------------------------------------------------------------------------------
L=0  Nkbl=1  erefs: 0.17977+309
L=1  Nkbl=1  erefs: 0.17977+309
L=2  Nkbl=1  erefs: 0.17977+309
L=3  Nkbl=1  erefs: 0.17977+309
===============================================================================
</basis_specs>

atom: Called for C                     (Z =   6)

read_vps: Pseudopotential generation method:
read_vps: ATM3      Troullier-Martins                       
Total valence charge:    4.00000

read_vps: Pseudopotential includes a core correction:
read_vps: Pseudo-core for xc-correction

xc_check: Exchange-correlation functional:
xc_check: GGA Perdew, Burke & Ernzerhof 1996
V l=0 = -2*Zval/r beyond r=  1.5227
V l=1 = -2*Zval/r beyond r=  1.5227
V l=2 = -2*Zval/r beyond r=  1.5227
V l=3 = -2*Zval/r beyond r=  1.5038
All V_l potentials equal beyond r=  1.5227
This should be close to max(r_c) in ps generation
All pots = -2*Zval/r beyond r=  1.5227

VLOCAL1: 99.0% of the norm of Vloc inside     18.722 Ry
VLOCAL1: 99.9% of the norm of Vloc inside     42.668 Ry
atom: Maximum radius for 4*pi*r*r*local-pseudopot. charge    1.83678
atom: Maximum radius for r*vlocal+2*Zval:    1.58088
GHOST: No ghost state for L =  0
GHOST: No ghost state for L =  1
GHOST: No ghost state for L =  2
GHOST: No ghost state for L =  3

KBgen: Kleinman-Bylander projectors: 
   l= 0   rc=  1.704034   el= -1.009801   Ekb=  5.335044   kbcos=  0.316824
   l= 1   rc=  1.704034   el= -0.388707   Ekb= -3.785862   kbcos= -0.366464
   l= 2   rc=  1.791422   el=  0.001971   Ekb= -0.970471   kbcos= -0.009212
   l= 3   rc=  1.859892   el=  0.003065   Ekb= -0.399525   kbcos= -0.001223

KBgen: Total number of  Kleinman-Bylander projectors:   16
atom: -------------------------------------------------------------------------

atom: SANKEY-TYPE ORBITALS:
atom: Selected multiple-zeta basis: split     

SPLIT: Orbitals with angular momentum L= 0

SPLIT: Basis orbitals for state 2s

SPLIT: PAO cut-off radius determined from an
SPLIT: energy shift=  0.007350 Ry

   izeta = 1
                 lambda =    1.000000
                     rc =    4.632753
                 energy =   -1.002270
                kinetic =    0.855760
    potential(screened) =   -1.858031
       potential(ionic) =   -5.417575

   izeta = 2
                 rmatch =    3.431921
              splitnorm =    0.150000
                 energy =   -0.867111
                kinetic =    1.300804
    potential(screened) =   -2.167915
       potential(ionic) =   -5.962684

SPLIT: Orbitals with angular momentum L= 1

SPLIT: Basis orbitals for state 2p

SPLIT: PAO cut-off radius determined from an
SPLIT: energy shift=  0.007350 Ry

   izeta = 1
                 lambda =    1.000000
                     rc =    5.658549
                 energy =   -0.381140
                kinetic =    2.399701
    potential(screened) =   -2.780841
       potential(ionic) =   -6.206085

   izeta = 2
                 rmatch =    3.653288
              splitnorm =    0.150000
                 energy =   -0.249149
                kinetic =    3.542762
    potential(screened) =   -3.791911
       potential(ionic) =   -7.581078

POLgen: Perturbative polarization orbital with L=  2

POLgen: Polarization orbital for state 2p

   izeta = 1
                     rc =    5.658549
                 energy =    1.109913
                kinetic =    2.304789
    potential(screened) =   -1.194876
       potential(ionic) =   -4.013592
atom: Total number of Sankey-type orbitals: 13

atm_pop: Valence configuration (for local Pseudopot. screening):
 2s( 2.00)                                                            
 2p( 2.00)                                                            
Vna: chval, zval:    4.00000   4.00000

Vna:  Cut-off radius for the neutral-atom potential:   5.658549
comcore: Pseudo-core radius Rcore=  1.791422

atom: _________________________________________________________________________

prinput: Basis input ----------------------------------------------------------

PAO.BasisType split     

%block ChemicalSpeciesLabel
    1    7 N                       # Species index, atomic number, species label
    2    6 C                       # Species index, atomic number, species label
%endblock ChemicalSpeciesLabel

%block PAO.Basis                 # Define Basis set
N                     2                    # Species label, number of l-shells
 n=2   0   2                         # n, l, Nzeta 
   4.071      2.905   
   1.000      1.000   
 n=2   1   2 P   1                   # n, l, Nzeta, Polarization, NzetaPol
   4.973      3.054   
   1.000      1.000   
C                     2                    # Species label, number of l-shells
 n=2   0   2                         # n, l, Nzeta 
   4.633      3.432   
   1.000      1.000   
 n=2   1   2 P   1                   # n, l, Nzeta, Polarization, NzetaPol
   5.659      3.653   
   1.000      1.000   
%endblock PAO.Basis

prinput: ----------------------------------------------------------------------

coor:   Atomic-coordinates input format  =     Fractional

siesta: Atomic coordinates (Bohr) and species
siesta:      9.28770  26.79272   0.00000  1        1
siesta:      6.95932  14.69411   0.00000  1        2
siesta:     -0.02582  13.34970   0.00000  1        3
siesta:      2.30256  22.75985   0.00000  1        4
siesta:     -7.01096  14.69411   0.00000  1        5
siesta:     -2.35420  22.75985   0.00000  1        6
siesta:     -7.01096  22.75985   0.00000  1        7
siesta:     -0.02582  29.48119   0.00000  1        8
siesta:     -4.68258  29.48119   0.00000  1        9
siesta:     -0.02582  37.54693   0.00000  1       10
siesta:     -0.02582   2.59549   0.00000  2       11
siesta:     -0.02582   5.28395   0.00000  2       12
siesta:     -2.35420  38.89134   0.00000  2       13
siesta:     -2.35420  41.57980   0.00000  2       14
siesta:      2.30256  38.89134   0.00000  2       15
siesta:      2.30256  41.57980   0.00000  2       16
siesta:      4.63094  34.85847   0.00000  2       17
siesta:      4.63094  37.54693   0.00000  2       18
siesta:      6.95932  30.82560   0.00000  2       19
siesta:      6.95932  33.51406   0.00000  2       20
siesta:      9.28770  29.48119   0.00000  2       21
siesta:     -4.68258  34.85847   0.00000  2       22
siesta:     -4.68258  37.54693   0.00000  2       23
siesta:      2.30256   6.62836   0.00000  2       24
siesta:      2.30256   9.31683   0.00000  2       25
siesta:      4.63094  10.66124   0.00000  2       26
siesta:      4.63094  13.34970   0.00000  2       27
siesta:      6.95932  17.38257   0.00000  2       28
siesta:      9.28770  18.72698   0.00000  2       29
siesta:      9.28770  21.41544   0.00000  2       30
siesta:     11.61608  22.75985   0.00000  2       31
siesta:     11.61608  25.44831   0.00000  2       32
siesta:     -2.35420   6.62836   0.00000  2       33
siesta:     -2.35420   9.31683   0.00000  2       34
siesta:     -0.02582  10.66124   0.00000  2       35
siesta:      2.30256  14.69411   0.00000  2       36
siesta:      2.30256  17.38257   0.00000  2       37
siesta:      4.63094  18.72698   0.00000  2       38
siesta:      4.63094  21.41544   0.00000  2       39
siesta:      6.95932  22.75985   0.00000  2       40
siesta:      6.95932  25.44831   0.00000  2       41
siesta:     -4.68258  10.66124   0.00000  2       42
siesta:     -4.68258  13.34970   0.00000  2       43
siesta:     -2.35420  14.69411   0.00000  2       44
siesta:     -2.35420  17.38257   0.00000  2       45
siesta:     -0.02582  18.72698   0.00000  2       46
siesta:     -0.02582  21.41544   0.00000  2       47
siesta:      2.30256  25.44831   0.00000  2       48
siesta:     -7.01096  17.38257   0.00000  2       49
siesta:     -4.68258  18.72698   0.00000  2       50
siesta:     -4.68258  21.41544   0.00000  2       51
siesta:     -2.35420  25.44831   0.00000  2       52
siesta:     -9.33934  18.72698   0.00000  2       53
siesta:     -9.33934  21.41544   0.00000  2       54
siesta:     -7.01096  25.44831   0.00000  2       55
siesta:    -11.66772  22.75985   0.00000  2       56
siesta:    -11.66772  25.44831   0.00000  2       57
siesta:     -9.33934  26.79272   0.00000  2       58
siesta:     -9.33934  29.48119   0.00000  2       59
siesta:      4.63094  26.79272   0.00000  2       60
siesta:      4.63094  29.48119   0.00000  2       61
siesta:     -0.02582  26.79272   0.00000  2       62
siesta:     -4.68258  26.79272   0.00000  2       63
siesta:      2.30256  30.82560   0.00000  2       64
siesta:      2.30256  33.51406   0.00000  2       65
siesta:     -2.35420  30.82560   0.00000  2       66
siesta:     -2.35420  33.51406   0.00000  2       67
siesta:     -7.01096  30.82560   0.00000  2       68
siesta:     -7.01096  33.51406   0.00000  2       69
siesta:     -0.02582  34.85847   0.00000  2       70
siesta:     -0.02582  42.92421   0.00000  2       71
siesta:     -0.02582  45.61267   0.00000  2       72

siesta: System type = slab      

initatomlists: Number of atoms, orbitals, and projectors:     72   936  1152

siesta: ******************** Simulation parameters ****************************
siesta:
siesta: The following are some of the parameters of the simulation.
siesta: A complete list of the parameters used, including default values,
siesta: can be found in file out.fdf
siesta:
redata: Non-Collinear-spin run           =     F
redata: SpinPolarized (Up/Down) run      =     F
redata: Number of spin components        =     1
redata: Long output                      =     F
redata: Number of Atomic Species         =        2
redata: Charge density info will appear in .RHO file
redata: Write Mulliken Pop.              =     NO
redata: Mesh Cutoff                      =   200.0000  Ry
redata: Net charge of the system         =     0.0000 |e|
redata: Max. number of SCF Iter          =      500
redata: SCF convergence failure will abort job
redata: Performing Pulay mixing using    =    10 iterations
redata: Mix DM in first SCF step ?       =     F
redata: Write Pulay info on disk?        =     F
redata: Discard 1st Pulay DM after  kick =     F
redata: New DM Mixing Weight             =     0.0500
redata: New DM Occupancy tolerance       = 0.000000000001
redata: No kicks to SCF
redata: DM Mixing Weight for Kicks       =     0.5000
redata: DM Tolerance for SCF             =     0.000100
redata: Require Energy convergence for SCF =     F
redata: DM Energy tolerance for SCF      =     0.000100 eV
redata: Require Harris convergence for SCF =     F
redata: DM Harris energy tolerance for SCF =     0.000100 eV
redata: Using Saved Data (generic)   =     F
redata: Use continuation files for DM    =     T
redata: Neglect nonoverlap interactions  =     F
redata: Method of Calculation            =     Diagonalization
redata: Divide and Conquer               =     T
redata: Electronic Temperature           =     0.0019  Ry
redata: Fix the spin of the system       =     F
redata: Dynamics option                  =     Verlet MD run
redata: Initial MD time step             =        1
redata:   Final MD time step             =        1
redata: Length of MD time step           =     1.0000  fs
redata: Initial Temperature of MD run    =     0.0000  K
redata: Perform a MD quench              =     F
redata: ***********************************************************************
Total number of electrons:   298.000000
Total ionic charge:   298.000000

* ProcessorY, Blocksize:    3  24

k-point displ. along   1 input, could be:     0.50    0.00
k-point displ. along   2 input, could be:     0.50    0.00
 Kpoints in:          231 . Kpoints trimmed:          231

siesta: k-grid: Number of k-points =   231
siesta: k-grid: Cutoff (effective) =     5.000 Ang
siesta: k-grid: Supercell and displacements
siesta: k-grid:   21   0   0      0.500
siesta: k-grid:    0  21   0      0.500
siesta: k-grid:    0   0   1      0.000
Naive supercell factors:     2    2    2

superc: Internal auxiliary supercell:     2 x     2 x     2  =       8
superc: Number of atoms, orbitals, and projectors:    576   7488   9216

* Maximum dynamic memory allocated =     4 MB

siesta:                 ==============================
                            Begin MD step =      1
                        ==============================

superc: Internal auxiliary supercell:     2 x     2 x     2  =       8
superc: Number of atoms, orbitals, and projectors:    576   7488   9216

outcell: Unit cell vectors (Ang):
       12.804619    7.392750    0.000000
        0.000000   14.785500    0.000000
        0.000000    0.000000   10.000000

outcell: Cell vector modules (Ang)   :   14.785500   14.785500   10.000000
outcell: Cell angles (23,13,12) (deg):     90.0000     90.0000     60.0000
outcell: Cell volume (Ang**3)        :   1893.2269
New_DM. Step:     1
Initializing Density Matrix...

InitMesh: MESH =   120 x   120 x    90 =     1296000
InitMesh: Mesh cutoff (required, used) =   200.000   223.865 Ry

* Maximum dynamic memory allocated =   136 MB

stepf: Fermi-Dirac step function

siesta: Program's energy decomposition (eV):
siesta: Ebs     =     -6084.948587
siesta: Eions   =     20010.479513
siesta: Ena     =      4822.023881
siesta: Ekin    =      7217.402668
siesta: Enl     =       337.397709
siesta: DEna    =        -0.000015
siesta: DUscf   =         0.000000
siesta: DUext   =         0.000000
siesta: Exc     =     -4419.138946
siesta: eta*DQ  =         0.000000
siesta: Emadel  =         0.000000
siesta: Emeta   =         0.000000
siesta: Emolmec =         0.000000
siesta: Ekinion =         0.000000
siesta: Eharris =    -11712.152284
siesta: Etot    =    -12052.794216
siesta: FreeEng =    -12052.794216

siesta: iscf   Eharris(eV)      E_KS(eV)   FreeEng(eV)   dDmax  Ef(eV)
siesta:    1   -11712.1523   -12052.7942   -12052.7942  7.7661 -7.1038
timer: Routine,Calls,Time,% = IterSCF        1    3009.882  99.60
elaps: Routine,Calls,Wall,% = IterSCF        1     251.420  99.59
siesta:    2   -15811.1295   -11102.9961   -11103.0480 10.3836 -3.6990
siesta:    3   -11691.4054   -11795.2999   -11795.3250  2.0481 -3.9566
siesta:    4   -11628.1990   -11716.4424   -11716.5107  1.2560 -4.1283
siesta:    5   -11594.3928   -11664.9165   -11664.9174  1.0330 -3.7825
siesta:    6   -11573.3995   -11642.4006   -11642.4262  0.7197 -4.0396
siesta:    7   -11567.4460   -11626.7268   -11626.7713  0.6483 -4.1029
siesta:    8   -11564.2996   -11613.5327   -11613.5900  0.5697 -4.0740
siesta:    9   -11561.8463   -11593.7022   -11593.7594  0.4455 -4.1750
siesta:   10   -11562.0024   -11575.1112   -11575.1495  0.3158 -4.1002
siesta:   11   -11561.7934   -11565.3239   -11565.3773  0.3389 -4.1297
siesta:   12   -11561.5480   -11558.4477   -11558.4954  0.3094 -4.1218
siesta:   13   -11561.0861   -11555.9646   -11556.0141  0.2075 -4.0386
siesta:   14   -11560.6824   -11556.4448   -11556.4754  0.1236 -4.0613
siesta:   15   -11560.5154   -11557.7006   -11557.7552  0.0953 -4.0833
siesta:   16   -11560.3822   -11558.1613   -11558.2156  0.0905 -4.0821
siesta:   17   -11560.3026   -11558.5480   -11558.5996  0.0503 -4.1077
siesta:   18   -11560.2388   -11558.2329   -11558.2803  0.0331 -4.1145
siesta:   19   -11560.2302   -11558.4195   -11558.4704  0.0305 -4.1134
siesta:   20   -11560.2234   -11558.5130   -11558.5659  0.0228 -4.1112
siesta:   21   -11560.2201   -11558.7020   -11558.7553  0.0168 -4.1046
siesta:   22   -11560.2149   -11559.0773   -11559.1303  0.0103 -4.1021
siesta:   23   -11560.2151   -11559.5570   -11559.6105  0.0105 -4.1067
siesta:   24   -11560.2140   -11559.7393   -11559.7913  0.0080 -4.1063
siesta:   25   -11560.2137   -11559.8309   -11559.8835  0.0055 -4.1076
siesta:   26   -11560.2136   -11559.8248   -11559.8772  0.0035 -4.1071
siesta:   27   -11560.2134   -11559.9223   -11559.9747  0.0018 -4.1070
siesta:   28   -11560.2134   -11560.0038   -11560.0563  0.0011 -4.1072
siesta:   29   -11560.2133   -11560.0828   -11560.1353  0.0008 -4.1073
siesta:   30   -11560.2134   -11560.1277   -11560.1802  0.0007 -4.1073
siesta:   31   -11560.2134   -11560.1667   -11560.2192  0.0005 -4.1074
siesta:   32   -11560.2134   -11560.1823   -11560.2348  0.0004 -4.1074
siesta:   33   -11560.2134   -11560.1936   -11560.2461  0.0003 -4.1075
siesta:   34   -11560.2134   -11560.1986   -11560.2511  0.0002 -4.1075
siesta:   35   -11560.2134   -11560.2060   -11560.2585  0.0002 -4.1075
siesta:   36   -11560.2134   -11560.2148   -11560.2673  0.0001 -4.1075
siesta:   37   -11560.2134   -11560.2162   -11560.2687  0.0001 -4.1075
siesta:   38   -11560.2134   -11560.2178   -11560.2703  0.0001 -4.1075

siesta: E_KS(eV) =           -11560.2166

siesta: E_KS - E_eggbox =    -11560.2166

siesta: Atomic forces (eV/Ang):
----------------------------------------
   Tot   -0.358458    0.039516    0.000000
----------------------------------------
   Max  679.590095
   Res  169.108131    sqrt( Sum f_i^2 / 3N )
----------------------------------------
   Max  679.590095    constrained

Stress-tensor-Voigt (kbar):     -664.62    -2964.56       -0.09       -2.08        0.00        0.00
(Free)E + p*V (eV/cell)   -10130.7642
Target enthalpy (eV/cell)   -11560.2691

siesta: Stress tensor (static) (eV/Ang**3):
        -0.414820   -0.001298    0.000000
        -0.001298   -1.850313    0.000000
         0.000000    0.000000   -0.000055

siesta: Pressure (static):       1209.75674268  kBar

siesta: Stress tensor (total) (eV/Ang**3):
        -0.414820   -0.001298    0.000000
        -0.001298   -1.850313    0.000000
         0.000000    0.000000   -0.000055

siesta: Pressure (total):       1209.75674268  kBar

siesta: Temp_ion =       0.000 K

* Maximum dynamic memory allocated =   148 MB
Computing bands...

siesta: Program's energy decomposition (eV):
siesta: Ebs     =     -4833.001746
siesta: Eions   =     20010.479513
siesta: Ena     =      4822.023881
siesta: Ekin    =     10248.589008
siesta: Enl     =     -1358.989871
siesta: DEna    =      -775.710628
siesta: DUscf   =       103.163652
siesta: DUext   =         0.000000
siesta: Exc     =     -4588.813097
siesta: eta*DQ  =         0.000000
siesta: Emadel  =         0.000000
siesta: Emeta   =         0.000000
siesta: Emolmec =         0.000000
siesta: Ekinion =         0.000000
siesta: Eharris =    -11560.213371
siesta: Etot    =    -11560.216567
siesta: FreeEng =    -11560.269073

siesta: Final energy (eV):
siesta:  Band Struct. =   -4833.001746
siesta:       Kinetic =   10248.589008
siesta:       Hartree =   33222.136545
siesta:    Ext. field =       0.000000
siesta:   Exch.-corr. =   -4588.813097
siesta:  Ion-electron =  -76315.036280
siesta:       Ion-ion =   25872.907256
siesta:       Ekinion =       0.000000
siesta:         Total =  -11560.216567

siesta: Atomic forces (eV/Ang):
siesta:      1    0.753345    1.849603    0.000000
siesta:      2   -3.317504    0.530569    0.000000
siesta:      3    0.202420 -114.772953    0.000000
siesta:      4   -0.159849    1.044826    0.000000
siesta:      5    3.134637    0.954469    0.000000
siesta:      6   -0.859434    0.449419    0.000000
siesta:      7    1.097126    1.556238    0.000000
siesta:      8   -0.219344 -679.590095    0.000000
siesta:      9    0.949171   -3.796178    0.000000
siesta:     10   -1.602302 -664.410644    0.000000
siesta:     11    0.823533  645.987393    0.000000
siesta:     12   -0.495207 -118.838681    0.000000
siesta:     13    1.593116  124.172329    0.000000
siesta:     14   -1.547974 -545.097451    0.000000
siesta:     15   -1.804109  124.502144    0.000000
siesta:     16    1.443714 -545.245112    0.000000
siesta:     17   26.577005    6.179716    0.000000
siesta:     18   31.440221 -551.290522    0.000000
siesta:     19    0.927638   -0.628815    0.000000
siesta:     20   -2.583955    1.838968    0.000000
siesta:     21    0.139021   -1.214468    0.000000
siesta:     22  -25.771457    6.583590    0.000000
siesta:     23  -31.304493 -551.090366    0.000000
siesta:     24   13.148146  551.518920    0.000000
siesta:     25    0.488616 -128.969079    0.000000
siesta:     26   34.448999  552.888914    0.000000
siesta:     27   26.540281   -7.272121    0.000000
siesta:     28    1.214091   -2.020626    0.000000
siesta:     29   -1.096527   -0.249407    0.000000
siesta:     30    1.947029   -3.286485    0.000000
siesta:     31   -0.231309    7.229527    0.000000
siesta:     32   -1.139474   -5.437537    0.000000
siesta:     33  -13.323413  551.807087    0.000000
siesta:     34   -0.282681 -128.469084    0.000000
siesta:     35    0.965437  651.646968    0.000000
siesta:     36   23.652065  561.040373    0.000000
siesta:     37   23.539092   -5.284975    0.000000
siesta:     38   -2.138598    3.059254    0.000000
siesta:     39   -0.368671    0.029196    0.000000
siesta:     40   -0.199389    1.509262    0.000000
siesta:     41    0.791865   -0.438486    0.000000
siesta:     42  -34.672199  553.055639    0.000000
siesta:     43  -26.372281   -7.348276    0.000000
siesta:     44  -23.767037  561.027874    0.000000
siesta:     45  -23.464993   -5.224049    0.000000
siesta:     46    0.046335  563.292075    0.000000
siesta:     47    0.162806    1.064960    0.000000
siesta:     48    1.019739   -1.193802    0.000000
siesta:     49   -1.316070   -2.323640    0.000000
siesta:     50    1.950605    3.317302    0.000000
siesta:     51   -0.385925    0.461366    0.000000
siesta:     52   -0.970071    0.392447    0.000000
siesta:     53    0.893605   -0.208617    0.000000
siesta:     54   -1.152013   -2.377116    0.000000
siesta:     55   -0.235154   -1.205980    0.000000
siesta:     56    0.417651    6.601752    0.000000
siesta:     57    0.254448   -7.081152    0.000000
siesta:     58   -1.450640    1.702095    0.000000
siesta:     59    1.585659    0.686850    0.000000
siesta:     60    0.431491   -0.170811    0.000000
siesta:     61   -1.097519   -2.470934    0.000000
siesta:     62   -0.274790   -0.646287    0.000000
siesta:     63    0.353649   -0.021740    0.000000
siesta:     64   25.642598    8.097705    0.000000
siesta:     65   19.352847 -559.344653    0.000000
siesta:     66  -26.815262    8.752179    0.000000
siesta:     67  -18.446552 -560.727023    0.000000
siesta:     68   -1.774378    0.191867    0.000000
siesta:     69    2.763152    0.927246    0.000000
siesta:     70   -0.257207  123.157418    0.000000
siesta:     71   -0.036605  126.731302    0.000000
siesta:     72   -0.115222 -548.052161    0.000000
siesta: ----------------------------------------
siesta:    Tot   -0.358458    0.039516    0.000000

siesta: Stress tensor (static) (eV/Ang**3):
siesta:    -0.414820   -0.001298    0.000000
siesta:    -0.001298   -1.850313    0.000000
siesta:     0.000000    0.000000   -0.000055

siesta: Cell volume =       1893.226884 Ang**3

siesta: Pressure (static):
siesta:                Solid            Molecule  Units
siesta:           0.00822360          0.13260093  Ry/Bohr**3
siesta:           0.75506261         12.17496688  eV/Ang**3
siesta:        1209.75674268      19506.65829388  kBar
(Free)E+ p_basis*V_orbitals  =      -11530.961090
(Free)Eharris+ p_basis*V_orbitals  =      -11530.956708

siesta: Electric dipole (a.u.)  =    0.000000    0.000000    0.000000
siesta: Electric dipole (Debye) =    0.000000    0.000000    0.000000

* Maximum dynamic memory allocated : Node    0 =   148 MB
* Maximum dynamic memory allocated : Node    1 =    60 MB
* Maximum dynamic memory allocated : Node    2 =    60 MB
* Maximum dynamic memory allocated : Node    3 =   136 MB
* Maximum dynamic memory allocated : Node    4 =   145 MB
* Maximum dynamic memory allocated : Node    5 =    53 MB
* Maximum dynamic memory allocated : Node    6 =    55 MB
* Maximum dynamic memory allocated : Node    7 =   139 MB
* Maximum dynamic memory allocated : Node    8 =   131 MB
* Maximum dynamic memory allocated : Node    9 =    53 MB
* Maximum dynamic memory allocated : Node   10 =    54 MB
* Maximum dynamic memory allocated : Node   11 =   125 MB

* Maximum memory occured during matrixMtoO                    

timer: CPU execution times:
timer:  Routine       Calls   Time/call    Tot.time        %
timer:  siesta            1  112210.945  112210.945   100.00
timer:  Setup             1       3.300       3.300     0.00
timer:  bands             3     226.587     679.760     0.61
timer:  writewave         1       0.024       0.024     0.00
timer:  KSV_init          1       0.001       0.001     0.00
timer:  IterMD            1  111520.841  111520.841    99.38
timer:  hsparse           1       0.160       0.160     0.00
timer:  overlap           1       6.347       6.347     0.01
timer:  IterSCF          38    2931.455  111395.303    99.27
timer:  kinefsm           2       3.222       6.443     0.01
timer:  nlefsm            2      18.622      37.244     0.03
timer:  DHSCF            39      62.886    2452.544     2.19
timer:  DHSCF1            1       0.901       0.901     0.00
timer:  DHSCF2            1      24.739      24.739     0.02
timer:  REORD           314       0.002       0.738     0.00
timer:  POISON           40       0.449      17.962     0.02
timer:  DHSCF3           39      61.670    2405.127     2.14
timer:  rhoofd           39      12.941     504.689     0.45
timer:  cellXC           39       2.428      94.680     0.08
timer:  vmat             39      28.861    1125.596     1.00
timer:  MolMec            2       0.001       0.002     0.00
timer:  diagon           38    2867.369  108960.018    97.10
timer:  c-eigval       8899       5.599   49824.285    44.40
timer:  c-buildHS      8899       0.033     295.747     0.26
timer:  cdiag         17677       5.700  100754.763    89.79
timer:  cdiag1        17677       0.260    4604.618     4.10
timer:  cdiag2        17677       1.839   32502.979    28.97
timer:  cdiag3        17677       3.390   59918.425    53.40
timer:  cdiag4        17677       0.089    1566.069     1.40
timer:  c-eigvec       8778       5.863   51468.617    45.87
timer:  c-buildD       8778       0.945    8299.474     7.40
timer:  DHSCF4            1      21.518      21.518     0.02
timer:  dfscf             1      20.077      20.077     0.02
timer:  overfsm           1       0.284       0.284     0.00
timer:  optical           1       6.429       6.429     0.01
  

elaps: ELAPSED times:
elaps:  Routine       Calls   Time/call    Tot.time        %
elaps:  siesta            1    9372.889    9372.889   100.00
elaps:  Setup             1       0.280       0.280     0.00
elaps:  bands             3      18.942      56.827     0.61
elaps:  writewave         1       0.002       0.002     0.00
elaps:  KSV_init          1       0.000       0.000     0.00
elaps:  IterMD            1    9315.241    9315.241    99.38
elaps:  hsparse           1       0.016       0.016     0.00
elaps:  overlap           1       0.711       0.711     0.01
elaps:  IterSCF          38     244.862    9304.755    99.27
elaps:  kinefsm           2       0.363       0.725     0.01
elaps:  nlefsm            2       1.646       3.291     0.04
elaps:  DHSCF            39       5.300     206.696     2.21
elaps:  DHSCF1            1       0.077       0.077     0.00
elaps:  DHSCF2            1       2.066       2.066     0.02
elaps:  REORD           314       0.000       0.093     0.00
elaps:  POISON           40       0.038       1.506     0.02
elaps:  DHSCF3           39       5.152     200.943     2.14
elaps:  rhoofd           39       2.290      89.292     0.95
elaps:  cellXC           39       0.202       7.890     0.08
elaps:  vmat             39       2.412      94.063     1.00
elaps:  MolMec            2       0.000       0.000     0.00
elaps:  diagon           38     239.513    9101.482    97.10
elaps:  c-eigval       8899       0.468    4161.730    44.40
elaps:  c-buildHS      8899       0.003      30.596     0.33
elaps:  cdiag         17677       0.473    8359.127    89.18
elaps:  cdiag1        17677       0.021     375.351     4.00
elaps:  cdiag2        17677       0.154    2717.381    28.99
elaps:  cdiag3        17677       0.284    5012.122    53.47
elaps:  cdiag4        17677       0.007     127.016     1.36
elaps:  c-eigvec       8778       0.485    4253.740    45.38
elaps:  c-buildD       8778       0.084     738.405     7.88
elaps:  DHSCF4            1       3.572       3.572     0.04
elaps:  dfscf             1       3.379       3.379     0.04
elaps:  overfsm           1       0.030       0.030     0.00
elaps:  optical           1       0.000       0.000     0.00
  
>> End of run:   7-MAY-2016  16:58:02
