Siesta Version:                                        siesta-3.2-pl-3
Architecture  : x86_64-unknown-linux-gnu--unknown
Compiler flags: mpiifort -g -O2 -fPIC -xSSE4.1 -fp-model source -shared-intel 
PARALLEL version

* Running on   12 nodes in parallel
>> Start of run:   6-MAY-2016  22:47:55

                           ***********************       
                           *  WELCOME TO SIESTA  *       
                           ***********************       

reinit: Reading from standard input
************************** Dump of input data file ****************************
#(1) General system descriptors
SystemName            GRP_doping    # Descriptive name of the system
SystemLabel           GRP_doping    # Short name for naming files
%include STRUCT.fdf
%include KPT.fdf
%include BASIS.fdf
#%include TS.fdf # for transiesta calculation
#(4) DFT, Grid, SCF
XC.functional         GGA           # LDA or GGA (default = LDA)
XC.authors            PBE           # CA (Ceperley-Aldr) = PZ
                                    #    (Perdew-Zunger) - LDA - Default
                                    # PW92 (Perdew-Wang-92) - LDA
                                    # PBE (Perdew-Burke-Ernzerhof) - GGA
MeshCutoff            200.000000    Ry      # Default: 50.0 Ry ~ 0.444 Bohr
                                    #         100.0 Ry ~ 0.314 Bohr
MaxSCFIterations      500           # Default: 50
DM.MixingWeight       0.05          # Default: 0.25
DM.NumberPulay        10            # Default: 0
DM.PulayOnFile        F             # SystemLabel.P1, SystemLabel.P2
DM.Tolerance          1.d-4         # Default: 1.d-4
DM.UseSaveDM          .true.        # because of the bug
SCFMustConverge       .true.
NeglNonOverlapInt     F             # Default: F
#(5) Eigenvalue problem: order-N or diagonalization
SolutionMethod        Diagon        # or Transiesta
ElectronicTemperature 300.0 K       # Default: 300.0 K
#(6) Molecular dynamics and relaxations
#MD.TypeOfRun          CG            # Type of dynamics:
#MD.VariableCell       F
#MD.NumCGsteps         0           # 0 for single-point / 100 for gopt
#MD.MaxCGDispl         0.2 Bohr      # Default: 0.2 Bohr
#MD.MaxForceTol        0.02 eV/Ang   # Default: 0.04 eV/Ang
#MD.MaxStressTol       1.0 GPa       # Default: 1.0 GPa
# Geometry Constraints
#%block GeometryConstraints
#	position from 1 to 44
#%endblock GeometryConstraints
BandLinesScale   pi/a
%block BandLines
 1   0.00000000  0.00000000  0.00000000
50   0.00000000  0.07809418  0.00000000
50   0.04509075  0.07809242  0.00000000
20   0.00000000  0.00000000  0.00000000
%endblock BandLines
************************** End of input data file *****************************

reinit: -----------------------------------------------------------------------
reinit: System Name: GRP_doping
reinit: -----------------------------------------------------------------------
reinit: System Label: GRP_doping                                                  
reinit: -----------------------------------------------------------------------

initatom: Reading input for the pseudopotentials and atomic orbitals ----------
 Species number:            1  Label: N Atomic number:           7
 Species number:            2  Label: C Atomic number:           6
Ground state valence configuration:   2s02  2p03
Reading pseudopotential information in formatted form from N.psf

Valence configuration for pseudopotential generation:
2s( 2.00) rc: 1.48
2p( 3.00) rc: 1.48
3d( 0.00) rc: 1.48
4f( 0.00) rc: 1.48
Ground state valence configuration:   2s02  2p02
Reading pseudopotential information in formatted form from C.psf

Valence configuration for pseudopotential generation:
2s( 2.00) rc: 1.54
2p( 2.00) rc: 1.54
3d( 0.00) rc: 1.54
4f( 0.00) rc: 1.54
For N, standard SIESTA heuristics set lmxkb to 3
 (one more than the basis l, including polarization orbitals).
Use PS.lmax or PS.KBprojectors blocks to override.
For C, standard SIESTA heuristics set lmxkb to 3
 (one more than the basis l, including polarization orbitals).
Use PS.lmax or PS.KBprojectors blocks to override.

<basis_specs>
===============================================================================
N                    Z=   7    Mass=  14.010        Charge= 0.17977+309
Lmxo=1 Lmxkb= 3    BasisType=split      Semic=F
L=0  Nsemic=0  Cnfigmx=2
          n=1  nzeta=2  polorb=0
            splnorm:   0.15000    
               vcte:    0.0000    
               rinn:    0.0000    
                rcs:    0.0000      0.0000    
            lambdas:    1.0000      1.0000    
L=1  Nsemic=0  Cnfigmx=2
          n=1  nzeta=2  polorb=1
            splnorm:   0.15000    
               vcte:    0.0000    
               rinn:    0.0000    
                rcs:    0.0000      0.0000    
            lambdas:    1.0000      1.0000    
-------------------------------------------------------------------------------
L=0  Nkbl=1  erefs: 0.17977+309
L=1  Nkbl=1  erefs: 0.17977+309
L=2  Nkbl=1  erefs: 0.17977+309
L=3  Nkbl=1  erefs: 0.17977+309
===============================================================================
</basis_specs>

atom: Called for N                     (Z =   7)

read_vps: Pseudopotential generation method:
read_vps: ATM3      Troullier-Martins                       
Total valence charge:    5.00000

read_vps: Pseudopotential includes a core correction:
read_vps: Pseudo-core for xc-correction

xc_check: Exchange-correlation functional:
xc_check: GGA Perdew, Burke & Ernzerhof 1996
V l=0 = -2*Zval/r beyond r=  1.4606
V l=1 = -2*Zval/r beyond r=  1.4606
V l=2 = -2*Zval/r beyond r=  1.4606
V l=3 = -2*Zval/r beyond r=  1.4606
All V_l potentials equal beyond r=  1.4606
This should be close to max(r_c) in ps generation
All pots = -2*Zval/r beyond r=  1.4606

VLOCAL1: 99.0% of the norm of Vloc inside     20.347 Ry
VLOCAL1: 99.9% of the norm of Vloc inside     46.372 Ry
atom: Maximum radius for 4*pi*r*r*local-pseudopot. charge    1.76189
atom: Maximum radius for r*vlocal+2*Zval:    1.53550
GHOST: No ghost state for L =  0
GHOST: No ghost state for L =  1
GHOST: No ghost state for L =  2
GHOST: No ghost state for L =  3

KBgen: Kleinman-Bylander projectors: 
   l= 0   rc=  1.634559   el= -1.363963   Ekb=  5.296955   kbcos=  0.335621
   l= 1   rc=  1.614250   el= -0.521451   Ekb= -5.259161   kbcos= -0.433408
   l= 2   rc=  1.718383   el=  0.001991   Ekb= -1.271464   kbcos= -0.007566
   l= 3   rc=  1.761893   el=  0.003093   Ekb= -0.494769   kbcos= -0.001015

KBgen: Total number of  Kleinman-Bylander projectors:   16
atom: -------------------------------------------------------------------------

atom: SANKEY-TYPE ORBITALS:
atom: Selected multiple-zeta basis: split     

SPLIT: Orbitals with angular momentum L= 0

SPLIT: Basis orbitals for state 2s

SPLIT: PAO cut-off radius determined from an
SPLIT: energy shift=  0.007350 Ry

   izeta = 1
                 lambda =    1.000000
                     rc =    4.071465
                 energy =   -1.356470
                kinetic =    1.176977
    potential(screened) =   -2.533447
       potential(ionic) =   -8.057990

   izeta = 2
                 rmatch =    2.905100
              splitnorm =    0.150000
                 energy =   -1.158343
                kinetic =    1.813009
    potential(screened) =   -2.971352
       potential(ionic) =   -8.901931

SPLIT: Orbitals with angular momentum L= 1

SPLIT: Basis orbitals for state 2p

SPLIT: PAO cut-off radius determined from an
SPLIT: energy shift=  0.007350 Ry

   izeta = 1
                 lambda =    1.000000
                     rc =    4.972977
                 energy =   -0.513884
                kinetic =    3.441732
    potential(screened) =   -3.955616
       potential(ionic) =   -9.287901

   izeta = 2
                 rmatch =    3.054066
              splitnorm =    0.150000
                 energy =   -0.318226
                kinetic =    5.125348
    potential(screened) =   -5.443573
       potential(ionic) =  -11.380999

POLgen: Perturbative polarization orbital with L=  2

POLgen: Polarization orbital for state 2p

   izeta = 1
                     rc =    4.972977
                 energy =    1.607437
                kinetic =    3.268125
    potential(screened) =   -1.660688
       potential(ionic) =   -5.973652
atom: Total number of Sankey-type orbitals: 13

atm_pop: Valence configuration (for local Pseudopot. screening):
 2s( 2.00)                                                            
 2p( 3.00)                                                            
Vna: chval, zval:    5.00000   5.00000

Vna:  Cut-off radius for the neutral-atom potential:   4.972977
comcore: Pseudo-core radius Rcore=  1.554824

atom: _________________________________________________________________________

<basis_specs>
===============================================================================
C                    Z=   6    Mass=  12.010        Charge= 0.17977+309
Lmxo=1 Lmxkb= 3    BasisType=split      Semic=F
L=0  Nsemic=0  Cnfigmx=2
          n=1  nzeta=2  polorb=0
            splnorm:   0.15000    
               vcte:    0.0000    
               rinn:    0.0000    
                rcs:    0.0000      0.0000    
            lambdas:    1.0000      1.0000    
L=1  Nsemic=0  Cnfigmx=2
          n=1  nzeta=2  polorb=1
            splnorm:   0.15000    
               vcte:    0.0000    
               rinn:    0.0000    
                rcs:    0.0000      0.0000    
            lambdas:    1.0000      1.0000    
-------------------------------------------------------------------------------
L=0  Nkbl=1  erefs: 0.17977+309
L=1  Nkbl=1  erefs: 0.17977+309
L=2  Nkbl=1  erefs: 0.17977+309
L=3  Nkbl=1  erefs: 0.17977+309
===============================================================================
</basis_specs>

atom: Called for C                     (Z =   6)

read_vps: Pseudopotential generation method:
read_vps: ATM3      Troullier-Martins                       
Total valence charge:    4.00000

read_vps: Pseudopotential includes a core correction:
read_vps: Pseudo-core for xc-correction

xc_check: Exchange-correlation functional:
xc_check: GGA Perdew, Burke & Ernzerhof 1996
V l=0 = -2*Zval/r beyond r=  1.5227
V l=1 = -2*Zval/r beyond r=  1.5227
V l=2 = -2*Zval/r beyond r=  1.5227
V l=3 = -2*Zval/r beyond r=  1.5038
All V_l potentials equal beyond r=  1.5227
This should be close to max(r_c) in ps generation
All pots = -2*Zval/r beyond r=  1.5227

VLOCAL1: 99.0% of the norm of Vloc inside     18.722 Ry
VLOCAL1: 99.9% of the norm of Vloc inside     42.668 Ry
atom: Maximum radius for 4*pi*r*r*local-pseudopot. charge    1.83678
atom: Maximum radius for r*vlocal+2*Zval:    1.58088
GHOST: No ghost state for L =  0
GHOST: No ghost state for L =  1
GHOST: No ghost state for L =  2
GHOST: No ghost state for L =  3

KBgen: Kleinman-Bylander projectors: 
   l= 0   rc=  1.704034   el= -1.009801   Ekb=  5.335044   kbcos=  0.316824
   l= 1   rc=  1.704034   el= -0.388707   Ekb= -3.785862   kbcos= -0.366464
   l= 2   rc=  1.791422   el=  0.001971   Ekb= -0.970471   kbcos= -0.009212
   l= 3   rc=  1.859892   el=  0.003065   Ekb= -0.399525   kbcos= -0.001223

KBgen: Total number of  Kleinman-Bylander projectors:   16
atom: -------------------------------------------------------------------------

atom: SANKEY-TYPE ORBITALS:
atom: Selected multiple-zeta basis: split     

SPLIT: Orbitals with angular momentum L= 0

SPLIT: Basis orbitals for state 2s

SPLIT: PAO cut-off radius determined from an
SPLIT: energy shift=  0.007350 Ry

   izeta = 1
                 lambda =    1.000000
                     rc =    4.632753
                 energy =   -1.002270
                kinetic =    0.855760
    potential(screened) =   -1.858031
       potential(ionic) =   -5.417575

   izeta = 2
                 rmatch =    3.431921
              splitnorm =    0.150000
                 energy =   -0.867111
                kinetic =    1.300804
    potential(screened) =   -2.167915
       potential(ionic) =   -5.962684

SPLIT: Orbitals with angular momentum L= 1

SPLIT: Basis orbitals for state 2p

SPLIT: PAO cut-off radius determined from an
SPLIT: energy shift=  0.007350 Ry

   izeta = 1
                 lambda =    1.000000
                     rc =    5.658549
                 energy =   -0.381140
                kinetic =    2.399701
    potential(screened) =   -2.780841
       potential(ionic) =   -6.206085

   izeta = 2
                 rmatch =    3.653288
              splitnorm =    0.150000
                 energy =   -0.249149
                kinetic =    3.542762
    potential(screened) =   -3.791911
       potential(ionic) =   -7.581078

POLgen: Perturbative polarization orbital with L=  2

POLgen: Polarization orbital for state 2p

   izeta = 1
                     rc =    5.658549
                 energy =    1.109913
                kinetic =    2.304789
    potential(screened) =   -1.194876
       potential(ionic) =   -4.013592
atom: Total number of Sankey-type orbitals: 13

atm_pop: Valence configuration (for local Pseudopot. screening):
 2s( 2.00)                                                            
 2p( 2.00)                                                            
Vna: chval, zval:    4.00000   4.00000

Vna:  Cut-off radius for the neutral-atom potential:   5.658549
comcore: Pseudo-core radius Rcore=  1.791422

atom: _________________________________________________________________________

prinput: Basis input ----------------------------------------------------------

PAO.BasisType split     

%block ChemicalSpeciesLabel
    1    7 N                       # Species index, atomic number, species label
    2    6 C                       # Species index, atomic number, species label
%endblock ChemicalSpeciesLabel

%block PAO.Basis                 # Define Basis set
N                     2                    # Species label, number of l-shells
 n=2   0   2                         # n, l, Nzeta 
   4.071      2.905   
   1.000      1.000   
 n=2   1   2 P   1                   # n, l, Nzeta, Polarization, NzetaPol
   4.973      3.054   
   1.000      1.000   
C                     2                    # Species label, number of l-shells
 n=2   0   2                         # n, l, Nzeta 
   4.633      3.432   
   1.000      1.000   
 n=2   1   2 P   1                   # n, l, Nzeta, Polarization, NzetaPol
   5.659      3.653   
   1.000      1.000   
%endblock PAO.Basis

prinput: ----------------------------------------------------------------------

coor:   Atomic-coordinates input format  =     Fractional

siesta: Atomic coordinates (Bohr) and species
siesta:     -0.02582   5.28395   0.00000  1        1
siesta:      9.28770  26.79272   0.00000  1        2
siesta:      6.95932  14.69411   0.00000  1        3
siesta:     -0.02582  18.72698   0.00000  1        4
siesta:    -11.66772  25.44831   0.00000  1        5
siesta:     -4.68258  29.48119   0.00000  1        6
siesta:     -0.02582  34.85847   0.00000  1        7
siesta:     -0.02582   2.59549   0.00000  2        8
siesta:     -2.35420  38.89134   0.00000  2        9
siesta:     -2.35420  41.57980   0.00000  2       10
siesta:      2.30256  38.89134   0.00000  2       11
siesta:      2.30256  41.57980   0.00000  2       12
siesta:      4.63094  34.85847   0.00000  2       13
siesta:      4.63094  37.54693   0.00000  2       14
siesta:      6.95932  30.82560   0.00000  2       15
siesta:      6.95932  33.51406   0.00000  2       16
siesta:      9.28770  29.48119   0.00000  2       17
siesta:     -4.68258  34.85847   0.00000  2       18
siesta:     -4.68258  37.54693   0.00000  2       19
siesta:      2.30256   6.62836   0.00000  2       20
siesta:      2.30256   9.31683   0.00000  2       21
siesta:      4.63094  10.66124   0.00000  2       22
siesta:      4.63094  13.34970   0.00000  2       23
siesta:      6.95932  17.38257   0.00000  2       24
siesta:      9.28770  18.72698   0.00000  2       25
siesta:      9.28770  21.41544   0.00000  2       26
siesta:     11.61608  22.75985   0.00000  2       27
siesta:     11.61608  25.44831   0.00000  2       28
siesta:     -2.35420   6.62836   0.00000  2       29
siesta:     -2.35420   9.31683   0.00000  2       30
siesta:     -0.02582  10.66124   0.00000  2       31
siesta:     -0.02582  13.34970   0.00000  2       32
siesta:      2.30256  14.69411   0.00000  2       33
siesta:      2.30256  17.38257   0.00000  2       34
siesta:      4.63094  18.72698   0.00000  2       35
siesta:      4.63094  21.41544   0.00000  2       36
siesta:      6.95932  22.75985   0.00000  2       37
siesta:      6.95932  25.44831   0.00000  2       38
siesta:     -4.68258  10.66124   0.00000  2       39
siesta:     -4.68258  13.34970   0.00000  2       40
siesta:     -2.35420  14.69411   0.00000  2       41
siesta:     -2.35420  17.38257   0.00000  2       42
siesta:     -0.02582  21.41544   0.00000  2       43
siesta:      2.30256  22.75985   0.00000  2       44
siesta:      2.30256  25.44831   0.00000  2       45
siesta:     -7.01096  14.69411   0.00000  2       46
siesta:     -7.01096  17.38257   0.00000  2       47
siesta:     -4.68258  18.72698   0.00000  2       48
siesta:     -4.68258  21.41544   0.00000  2       49
siesta:     -2.35420  22.75985   0.00000  2       50
siesta:     -2.35420  25.44831   0.00000  2       51
siesta:     -9.33934  18.72698   0.00000  2       52
siesta:     -9.33934  21.41544   0.00000  2       53
siesta:     -7.01096  22.75985   0.00000  2       54
siesta:     -7.01096  25.44831   0.00000  2       55
siesta:    -11.66772  22.75985   0.00000  2       56
siesta:     -9.33934  26.79272   0.00000  2       57
siesta:     -9.33934  29.48119   0.00000  2       58
siesta:      4.63094  26.79272   0.00000  2       59
siesta:      4.63094  29.48119   0.00000  2       60
siesta:     -0.02582  26.79272   0.00000  2       61
siesta:     -0.02582  29.48119   0.00000  2       62
siesta:     -4.68258  26.79272   0.00000  2       63
siesta:      2.30256  30.82560   0.00000  2       64
siesta:      2.30256  33.51406   0.00000  2       65
siesta:     -2.35420  30.82560   0.00000  2       66
siesta:     -2.35420  33.51406   0.00000  2       67
siesta:     -7.01096  30.82560   0.00000  2       68
siesta:     -7.01096  33.51406   0.00000  2       69
siesta:     -0.02582  37.54693   0.00000  2       70
siesta:     -0.02582  42.92421   0.00000  2       71
siesta:     -0.02582  45.61267   0.00000  2       72

siesta: System type = slab      

initatomlists: Number of atoms, orbitals, and projectors:     72   936  1152

siesta: ******************** Simulation parameters ****************************
siesta:
siesta: The following are some of the parameters of the simulation.
siesta: A complete list of the parameters used, including default values,
siesta: can be found in file out.fdf
siesta:
redata: Non-Collinear-spin run           =     F
redata: SpinPolarized (Up/Down) run      =     F
redata: Number of spin components        =     1
redata: Long output                      =     F
redata: Number of Atomic Species         =        2
redata: Charge density info will appear in .RHO file
redata: Write Mulliken Pop.              =     NO
redata: Mesh Cutoff                      =   200.0000  Ry
redata: Net charge of the system         =     0.0000 |e|
redata: Max. number of SCF Iter          =      500
redata: SCF convergence failure will abort job
redata: Performing Pulay mixing using    =    10 iterations
redata: Mix DM in first SCF step ?       =     F
redata: Write Pulay info on disk?        =     F
redata: Discard 1st Pulay DM after  kick =     F
redata: New DM Mixing Weight             =     0.0500
redata: New DM Occupancy tolerance       = 0.000000000001
redata: No kicks to SCF
redata: DM Mixing Weight for Kicks       =     0.5000
redata: DM Tolerance for SCF             =     0.000100
redata: Require Energy convergence for SCF =     F
redata: DM Energy tolerance for SCF      =     0.000100 eV
redata: Require Harris convergence for SCF =     F
redata: DM Harris energy tolerance for SCF =     0.000100 eV
redata: Using Saved Data (generic)   =     F
redata: Use continuation files for DM    =     T
redata: Neglect nonoverlap interactions  =     F
redata: Method of Calculation            =     Diagonalization
redata: Divide and Conquer               =     T
redata: Electronic Temperature           =     0.0019  Ry
redata: Fix the spin of the system       =     F
redata: Dynamics option                  =     Verlet MD run
redata: Initial MD time step             =        1
redata:   Final MD time step             =        1
redata: Length of MD time step           =     1.0000  fs
redata: Initial Temperature of MD run    =     0.0000  K
redata: Perform a MD quench              =     F
redata: ***********************************************************************
Total number of electrons:   295.000000
Total ionic charge:   295.000000

* ProcessorY, Blocksize:    3  24

k-point displ. along   1 input, could be:     0.50    0.00
k-point displ. along   2 input, could be:     0.50    0.00
 Kpoints in:          231 . Kpoints trimmed:          231

siesta: k-grid: Number of k-points =   231
siesta: k-grid: Cutoff (effective) =     5.000 Ang
siesta: k-grid: Supercell and displacements
siesta: k-grid:   21   0   0      0.500
siesta: k-grid:    0  21   0      0.500
siesta: k-grid:    0   0   1      0.000
Naive supercell factors:     2    2    2

superc: Internal auxiliary supercell:     2 x     2 x     2  =       8
superc: Number of atoms, orbitals, and projectors:    576   7488   9216

* Maximum dynamic memory allocated =     4 MB

siesta:                 ==============================
                            Begin MD step =      1
                        ==============================

superc: Internal auxiliary supercell:     2 x     2 x     2  =       8
superc: Number of atoms, orbitals, and projectors:    576   7488   9216

outcell: Unit cell vectors (Ang):
       12.804619    7.392750    0.000000
        0.000000   14.785500    0.000000
        0.000000    0.000000   10.000000

outcell: Cell vector modules (Ang)   :   14.785500   14.785500   10.000000
outcell: Cell angles (23,13,12) (deg):     90.0000     90.0000     60.0000
outcell: Cell volume (Ang**3)        :   1893.2269
New_DM. Step:     1
Initializing Density Matrix...

InitMesh: MESH =   120 x   120 x    90 =     1296000
InitMesh: Mesh cutoff (required, used) =   200.000   223.865 Ry

* Maximum dynamic memory allocated =   136 MB

stepf: Fermi-Dirac step function

siesta: Program's energy decomposition (eV):
siesta: Ebs     =     -6014.614371
siesta: Eions   =     19528.238980
siesta: Ena     =      4783.720328
siesta: Ekin    =      6965.634232
siesta: Enl     =       416.950991
siesta: DEna    =        -0.000015
siesta: DUscf   =         0.000000
siesta: DUext   =         0.000000
siesta: Exc     =     -4344.371550
siesta: eta*DQ  =         0.000000
siesta: Emadel  =         0.000000
siesta: Emeta   =         0.000000
siesta: Emolmec =         0.000000
siesta: Ekinion =         0.000000
siesta: Eharris =    -11358.811916
siesta: Etot    =    -11706.304995
siesta: FreeEng =    -11706.304995

siesta: iscf   Eharris(eV)      E_KS(eV)   FreeEng(eV)   dDmax  Ef(eV)
siesta:    1   -11358.8119   -11706.3050   -11706.3050  5.4392 -7.4781
timer: Routine,Calls,Time,% = IterSCF        1    2987.623  99.59
elaps: Routine,Calls,Wall,% = IterSCF        1     249.559  99.59
siesta:    2   -14862.5256   -10792.8517   -10792.8886  6.2650 -2.4267
siesta:    3   -11381.2062   -11416.9377   -11416.9858  1.5324 -3.3658
siesta:    4   -11281.6367   -11383.1123   -11383.1440  1.2655 -4.0479
siesta:    5   -11251.9102   -11346.9583   -11347.0060  1.1206 -4.4097
siesta:    6   -11238.1374   -11320.9333   -11320.9790  0.9840 -4.5892
siesta:    7   -11231.4490   -11306.5209   -11306.5799  1.0668 -4.4994
siesta:    8   -11217.8012   -11284.8697   -11284.9404  0.7179 -4.4361
siesta:    9   -11216.0248   -11276.3326   -11276.3734  0.7084 -4.4051
siesta:   10   -11213.9282   -11259.4971   -11259.5388  0.6167 -4.2996
siesta:   11   -11214.5272   -11236.0429   -11236.1005  0.2640 -4.2213
siesta:   12   -11213.8692   -11223.3903   -11223.4291  0.3341 -4.2002
siesta:   13   -11213.4049   -11215.1811   -11215.2184  0.4060 -4.1887
siesta:   14   -11213.0406   -11216.6756   -11216.7154  0.2983 -4.2373
siesta:   15   -11212.9416   -11214.8350   -11214.8875  0.1247 -4.2883
siesta:   16   -11212.8866   -11212.5257   -11212.5775  0.0792 -4.3178
siesta:   17   -11212.6718   -11211.3888   -11211.4386  0.0676 -4.3346
siesta:   18   -11212.5879   -11211.2914   -11211.3373  0.0531 -4.3326
siesta:   19   -11212.5759   -11210.9164   -11210.9642  0.0350 -4.3275
siesta:   20   -11212.5717   -11210.6415   -11210.6902  0.0248 -4.3212
siesta:   21   -11212.5711   -11210.8885   -11210.9378  0.0203 -4.3276
siesta:   22   -11212.5683   -11210.9884   -11211.0357  0.0124 -4.3267
siesta:   23   -11212.5669   -11211.0513   -11211.0983  0.0072 -4.3249
siesta:   24   -11212.5655   -11211.3468   -11211.3943  0.0048 -4.3246
siesta:   25   -11212.5653   -11211.8135   -11211.8613  0.0039 -4.3255
siesta:   26   -11212.5650   -11212.1095   -11212.1571  0.0033 -4.3254
siesta:   27   -11212.5646   -11212.2768   -11212.3245  0.0023 -4.3256
siesta:   28   -11212.5646   -11212.4177   -11212.4656  0.0014 -4.3260
siesta:   29   -11212.5645   -11212.4720   -11212.5198  0.0013 -4.3258
siesta:   30   -11212.5645   -11212.4977   -11212.5456  0.0010 -4.3259
siesta:   31   -11212.5645   -11212.5273   -11212.5751  0.0004 -4.3262
siesta:   32   -11212.5645   -11212.5403   -11212.5881  0.0004 -4.3263
siesta:   33   -11212.5645   -11212.5492   -11212.5970  0.0003 -4.3262
siesta:   34   -11212.5645   -11212.5593   -11212.6071  0.0002 -4.3262
siesta:   35   -11212.5645   -11212.5646   -11212.6124  0.0001 -4.3261
siesta:   36   -11212.5645   -11212.5662   -11212.6140  0.0001 -4.3261
siesta:   37   -11212.5645   -11212.5666   -11212.6144  0.0001 -4.3261

siesta: E_KS(eV) =           -11212.5667

siesta: E_KS - E_eggbox =    -11212.5667

siesta: Atomic forces (eV/Ang):
----------------------------------------
   Tot   -0.181433    0.135540    0.000000
----------------------------------------
   Max  679.689084
   Res  165.345440    sqrt( Sum f_i^2 / 3N )
----------------------------------------
   Max  679.689084    constrained

Stress-tensor-Voigt (kbar):     -686.18    -2922.08       -0.12        2.86        0.00        0.00
(Free)E + p*V (eV/cell)    -9791.3349
Target enthalpy (eV/cell)   -11212.6145

siesta: Stress tensor (static) (eV/Ang**3):
        -0.428278    0.001785    0.000000
         0.001785   -1.823799    0.000000
         0.000000    0.000000   -0.000077

siesta: Pressure (static):       1202.79592717  kBar

siesta: Stress tensor (total) (eV/Ang**3):
        -0.428278    0.001785    0.000000
         0.001785   -1.823799    0.000000
         0.000000    0.000000   -0.000077

siesta: Pressure (total):       1202.79592717  kBar

siesta: Temp_ion =       0.000 K

* Maximum dynamic memory allocated =   148 MB
Computing bands...

siesta: Program's energy decomposition (eV):
siesta: Ebs     =     -4750.085248
siesta: Eions   =     19528.238980
siesta: Ena     =      4783.720328
siesta: Ekin    =      9965.699292
siesta: Enl     =     -1245.833648
siesta: DEna    =      -774.601423
siesta: DUscf   =       100.543287
siesta: DUext   =         0.000000
siesta: Exc     =     -4513.855512
siesta: eta*DQ  =         0.000000
siesta: Emadel  =         0.000000
siesta: Emeta   =         0.000000
siesta: Emolmec =         0.000000
siesta: Ekinion =         0.000000
siesta: Eharris =    -11212.564525
siesta: Etot    =    -11212.566656
siesta: FreeEng =    -11212.614456

siesta: Final energy (eV):
siesta:  Band Struct. =   -4750.085248
siesta:       Kinetic =    9965.699292
siesta:       Hartree =   32511.689199
siesta:    Ext. field =       0.000000
siesta:   Exch.-corr. =   -4513.855512
siesta:  Ion-electron =  -74615.821549
siesta:       Ion-ion =   25439.721914
siesta:       Ekinion =       0.000000
siesta:         Total =  -11212.566656

siesta: Atomic forces (eV/Ang):
siesta:      1   -0.761539 -125.576825    0.000000
siesta:      2    0.935639    1.556147    0.000000
siesta:      3   -3.162699    0.588226    0.000000
siesta:      4   -0.185065  679.689084    0.000000
siesta:      5    0.614626   -5.286701    0.000000
siesta:      6    1.955403   -3.493844    0.000000
siesta:      7   -0.490270  123.124734    0.000000
siesta:      8   -0.856813  546.544139    0.000000
siesta:      9    2.132224  127.585405    0.000000
siesta:     10  -18.015847 -549.736527    0.000000
siesta:     11   -2.238706  127.923358    0.000000
siesta:     12   18.871759 -549.268659    0.000000
siesta:     13   26.948543    6.355610    0.000000
siesta:     14   33.029471 -548.740248    0.000000
siesta:     15    1.388623   -0.414551    0.000000
siesta:     16   -2.810992    1.828282    0.000000
siesta:     17    0.249094   -1.036986    0.000000
siesta:     18  -26.564028    6.699406    0.000000
siesta:     19  -33.950857 -548.648168    0.000000
siesta:     20    6.521792  550.954385    0.000000
siesta:     21   -0.841724 -124.024245    0.000000
siesta:     22   36.677880  550.830696    0.000000
siesta:     23   26.212956   -7.866128    0.000000
siesta:     24    0.926668   -2.533053    0.000000
siesta:     25   -0.969127   -0.036778    0.000000
siesta:     26    2.066209   -3.055844    0.000000
siesta:     27   -0.148231    7.551156    0.000000
siesta:     28   -1.296232   -5.758902    0.000000
siesta:     29   -7.017177  550.437261    0.000000
siesta:     30    0.840343 -123.359892    0.000000
siesta:     31   -0.170690  550.253890    0.000000
siesta:     32    0.174624 -128.008413    0.000000
siesta:     33   16.852564  558.278442    0.000000
siesta:     34   26.051754   -7.111094    0.000000
siesta:     35   -0.912027    2.601800    0.000000
siesta:     36    0.369985   -0.154599    0.000000
siesta:     37   -0.104150    0.893212    0.000000
siesta:     38    0.460360   -0.160365    0.000000
siesta:     39  -35.417468  549.156583    0.000000
siesta:     40  -26.566517   -6.663200    0.000000
siesta:     41  -17.518646  557.946715    0.000000
siesta:     42  -25.752755   -7.088623    0.000000
siesta:     43   -0.324067    1.332717    0.000000
siesta:     44    0.352070   -0.388617    0.000000
siesta:     45   -0.764151   -0.085929    0.000000
siesta:     46    2.691736   -1.953163    0.000000
siesta:     47   -1.509789   -0.008112    0.000000
siesta:     48    0.430904    2.904798    0.000000
siesta:     49   -0.613703   -0.490755    0.000000
siesta:     50    0.112299   -0.588749    0.000000
siesta:     51    0.303339    0.608273    0.000000
siesta:     52    1.228563    0.244987    0.000000
siesta:     53   -1.347751   -2.376895    0.000000
siesta:     54    0.149235    0.172671    0.000000
siesta:     55    0.196339    0.268447    0.000000
siesta:     56   -0.260096    7.307244    0.000000
siesta:     57   -2.109421    0.721737    0.000000
siesta:     58    0.881782   -0.378351    0.000000
siesta:     59    1.345341    0.440124    0.000000
siesta:     60   -1.745589   -2.490585    0.000000
siesta:     61    0.205097   -1.331823    0.000000
siesta:     62    1.034424 -570.056273    0.000000
siesta:     63   -0.657809    0.819809    0.000000
siesta:     64   24.424540    3.099141    0.000000
siesta:     65   13.626116 -560.097321    0.000000
siesta:     66  -25.027042    3.528359    0.000000
siesta:     67  -12.866214 -560.101719    0.000000
siesta:     68   -1.317001    0.126445    0.000000
siesta:     69    2.649677    1.145774    0.000000
siesta:     70    0.513409 -542.951276    0.000000
siesta:     71    0.623225  114.345359    0.000000
siesta:     72    0.064146 -646.405666    0.000000
siesta: ----------------------------------------
siesta:    Tot   -0.181433    0.135540    0.000000

siesta: Stress tensor (static) (eV/Ang**3):
siesta:    -0.428278    0.001785    0.000000
siesta:     0.001785   -1.823799    0.000000
siesta:     0.000000    0.000000   -0.000077

siesta: Cell volume =       1893.226884 Ang**3

siesta: Pressure (static):
siesta:                Solid            Molecule  Units
siesta:           0.00817628          0.12940828  Ry/Bohr**3
siesta:           0.75071805         11.88182836  eV/Ang**3
siesta:        1202.79592717      19036.99354243  kBar
(Free)E+ p_basis*V_orbitals  =      -11182.877582
(Free)Eharris+ p_basis*V_orbitals  =      -11182.875483

siesta: Electric dipole (a.u.)  =    0.000000    0.000000    0.000000
siesta: Electric dipole (Debye) =    0.000000    0.000000    0.000000

* Maximum dynamic memory allocated : Node    0 =   148 MB
* Maximum dynamic memory allocated : Node    1 =    58 MB
* Maximum dynamic memory allocated : Node    2 =    59 MB
* Maximum dynamic memory allocated : Node    3 =   137 MB
* Maximum dynamic memory allocated : Node    4 =   148 MB
* Maximum dynamic memory allocated : Node    5 =    54 MB
* Maximum dynamic memory allocated : Node    6 =    55 MB
* Maximum dynamic memory allocated : Node    7 =   140 MB
* Maximum dynamic memory allocated : Node    8 =   133 MB
* Maximum dynamic memory allocated : Node    9 =    54 MB
* Maximum dynamic memory allocated : Node   10 =    56 MB
* Maximum dynamic memory allocated : Node   11 =   128 MB

* Maximum memory occured during matrixMtoO                    

timer: CPU execution times:
timer:  Routine       Calls   Time/call    Tot.time        %
timer:  siesta            1  108371.013  108371.013   100.00
timer:  Setup             1       3.365       3.365     0.00
timer:  bands             3     225.586     676.759     0.62
timer:  writewave         1       0.023       0.023     0.00
timer:  KSV_init          1       0.003       0.003     0.00
timer:  IterMD            1  107683.955  107683.955    99.37
timer:  hsparse           1       0.162       0.162     0.00
timer:  overlap           1       5.729       5.729     0.01
timer:  IterSCF          37    2906.946  107557.006    99.25
timer:  kinefsm           2       2.912       5.824     0.01
timer:  nlefsm            2      18.905      37.809     0.03
timer:  DHSCF            38      65.659    2495.027     2.30
timer:  DHSCF1            1       0.900       0.900     0.00
timer:  DHSCF2            1      24.919      24.919     0.02
timer:  REORD           306       0.002       0.669     0.00
timer:  POISON           39       0.450      17.548     0.02
timer:  DHSCF3           38      64.395    2447.012     2.26
timer:  rhoofd           38      13.128     498.853     0.46
timer:  cellXC           38       2.487      94.510     0.09
timer:  vmat             38      31.356    1191.546     1.10
timer:  MolMec            2       0.000       0.001     0.00
timer:  diagon           37    2840.079  105082.909    96.97
timer:  c-eigval       8668       5.577   48341.017    44.61
timer:  c-buildHS      8668       0.033     290.198     0.27
timer:  cdiag         17215       5.667   97565.495    90.03
timer:  cdiag1        17215       0.261    4496.255     4.15
timer:  cdiag2        17215       1.831   31512.067    29.08
timer:  cdiag3        17215       3.378   58154.197    53.66
timer:  cdiag4        17215       0.088    1521.970     1.40
timer:  c-eigvec       8547       5.822   49756.930    45.91
timer:  c-buildD       8547       0.891    7615.096     7.03
timer:  DHSCF4            1      21.941      21.941     0.02
timer:  dfscf             1      20.494      20.494     0.02
timer:  overfsm           1       0.282       0.282     0.00
timer:  optical           1       6.318       6.318     0.01
  

elaps: ELAPSED times:
elaps:  Routine       Calls   Time/call    Tot.time        %
elaps:  siesta            1    9052.150    9052.150   100.00
elaps:  Setup             1       0.280       0.280     0.00
elaps:  bands             3      18.858      56.575     0.62
elaps:  writewave         1       0.002       0.002     0.00
elaps:  KSV_init          1       0.000       0.000     0.00
elaps:  IterMD            1    8994.763    8994.763    99.37
elaps:  hsparse           1       0.016       0.016     0.00
elaps:  overlap           1       0.709       0.709     0.01
elaps:  IterSCF          37     242.815    8984.159    99.25
elaps:  kinefsm           2       0.362       0.724     0.01
elaps:  nlefsm            2       1.629       3.257     0.04
elaps:  DHSCF            38       5.533     210.269     2.32
elaps:  DHSCF1            1       0.077       0.077     0.00
elaps:  DHSCF2            1       2.080       2.080     0.02
elaps:  REORD           306       0.000       0.091     0.00
elaps:  POISON           39       0.038       1.479     0.02
elaps:  DHSCF3           38       5.381     204.467     2.26
elaps:  rhoofd           38       2.300      87.407     0.97
elaps:  cellXC           38       0.207       7.878     0.09
elaps:  vmat             38       2.621      99.598     1.10
elaps:  MolMec            2       0.000       0.000     0.00
elaps:  diagon           37     237.234    8777.661    96.97
elaps:  c-eigval       8668       0.466    4037.809    44.61
elaps:  c-buildHS      8668       0.003      29.905     0.33
elaps:  cdiag         17215       0.469    8080.766    89.27
elaps:  cdiag1        17215       0.021     368.943     4.08
elaps:  cdiag2        17215       0.153    2634.489    29.10
elaps:  cdiag3        17215       0.283    4864.246    53.74
elaps:  cdiag4        17215       0.007     121.697     1.34
elaps:  c-eigvec       8547       0.479    4098.082    45.27
elaps:  c-buildD       8547       0.081     693.768     7.66
elaps:  DHSCF4            1       3.605       3.605     0.04
elaps:  dfscf             1       3.414       3.414     0.04
elaps:  overfsm           1       0.029       0.029     0.00
elaps:  optical           1       0.000       0.000     0.00
  
>> End of run:   7-MAY-2016   1:18:47
