Siesta Version:                                        siesta-3.2-pl-3
Architecture  : x86_64-unknown-linux-gnu--unknown
Compiler flags: mpiifort -g -O2 -fPIC -xSSE4.1 -fp-model source -shared-intel 
PARALLEL version

* Running on    8 nodes in parallel
>> Start of run:   1-MAY-2016  20:04:52

                           ***********************       
                           *  WELCOME TO SIESTA  *       
                           ***********************       

reinit: Reading from standard input
************************** Dump of input data file ****************************
#(1) General system descriptors
SystemName            GRP_doping    # Descriptive name of the system
SystemLabel           GRP_doping    # Short name for naming files
%include STRUCT.fdf
%include KPT.fdf
%include BASIS.fdf
#%include TS.fdf # for transiesta calculation
#(4) DFT, Grid, SCF
XC.functional         GGA           # LDA or GGA (default = LDA)
XC.authors            PBE           # CA (Ceperley-Aldr) = PZ
                                    #    (Perdew-Zunger) - LDA - Default
                                    # PW92 (Perdew-Wang-92) - LDA
                                    # PBE (Perdew-Burke-Ernzerhof) - GGA
MeshCutoff            200.000000    Ry      # Default: 50.0 Ry ~ 0.444 Bohr
                                    #         100.0 Ry ~ 0.314 Bohr
MaxSCFIterations      500           # Default: 50
DM.MixingWeight       0.05          # Default: 0.25
DM.NumberPulay        10            # Default: 0
DM.PulayOnFile        F             # SystemLabel.P1, SystemLabel.P2
DM.Tolerance          1.d-4         # Default: 1.d-4
DM.UseSaveDM          .true.        # because of the bug
SCFMustConverge       .true.
NeglNonOverlapInt     F             # Default: F
#(5) Eigenvalue problem: order-N or diagonalization
SolutionMethod        Diagon        # or Transiesta
ElectronicTemperature 300.0 K       # Default: 300.0 K
#(6) Molecular dynamics and relaxations
#MD.TypeOfRun          CG            # Type of dynamics:
#MD.VariableCell       F
#MD.NumCGsteps         0           # 0 for single-point / 100 for gopt
#MD.MaxCGDispl         0.2 Bohr      # Default: 0.2 Bohr
#MD.MaxForceTol        0.02 eV/Ang   # Default: 0.04 eV/Ang
#MD.MaxStressTol       1.0 GPa       # Default: 1.0 GPa
# Geometry Constraints
#%block GeometryConstraints
#	position from 1 to 44
#%endblock GeometryConstraints
BandLinesScale   pi/a
%block BandLines
 1   0.00000000  0.00000000  0.00000000
50   0.00000000  0.07809418  0.00000000
50   0.04509075  0.07809242  0.00000000
20   0.00000000  0.00000000  0.00000000
%endblock BandLines
************************** End of input data file *****************************

reinit: -----------------------------------------------------------------------
reinit: System Name: GRP_doping
reinit: -----------------------------------------------------------------------
reinit: System Label: GRP_doping                                                  
reinit: -----------------------------------------------------------------------

initatom: Reading input for the pseudopotentials and atomic orbitals ----------
 Species number:            1  Label: N Atomic number:           7
 Species number:            2  Label: C Atomic number:           6
Ground state valence configuration:   2s02  2p03
Reading pseudopotential information in formatted form from N.psf

Valence configuration for pseudopotential generation:
2s( 2.00) rc: 1.48
2p( 3.00) rc: 1.48
3d( 0.00) rc: 1.48
4f( 0.00) rc: 1.48
Ground state valence configuration:   2s02  2p02
Reading pseudopotential information in formatted form from C.psf

Valence configuration for pseudopotential generation:
2s( 2.00) rc: 1.54
2p( 2.00) rc: 1.54
3d( 0.00) rc: 1.54
4f( 0.00) rc: 1.54
For N, standard SIESTA heuristics set lmxkb to 3
 (one more than the basis l, including polarization orbitals).
Use PS.lmax or PS.KBprojectors blocks to override.
For C, standard SIESTA heuristics set lmxkb to 3
 (one more than the basis l, including polarization orbitals).
Use PS.lmax or PS.KBprojectors blocks to override.

<basis_specs>
===============================================================================
N                    Z=   7    Mass=  14.010        Charge= 0.17977+309
Lmxo=1 Lmxkb= 3    BasisType=split      Semic=F
L=0  Nsemic=0  Cnfigmx=2
          n=1  nzeta=2  polorb=0
            splnorm:   0.15000    
               vcte:    0.0000    
               rinn:    0.0000    
                rcs:    0.0000      0.0000    
            lambdas:    1.0000      1.0000    
L=1  Nsemic=0  Cnfigmx=2
          n=1  nzeta=2  polorb=1
            splnorm:   0.15000    
               vcte:    0.0000    
               rinn:    0.0000    
                rcs:    0.0000      0.0000    
            lambdas:    1.0000      1.0000    
-------------------------------------------------------------------------------
L=0  Nkbl=1  erefs: 0.17977+309
L=1  Nkbl=1  erefs: 0.17977+309
L=2  Nkbl=1  erefs: 0.17977+309
L=3  Nkbl=1  erefs: 0.17977+309
===============================================================================
</basis_specs>

atom: Called for N                     (Z =   7)

read_vps: Pseudopotential generation method:
read_vps: ATM3      Troullier-Martins                       
Total valence charge:    5.00000

read_vps: Pseudopotential includes a core correction:
read_vps: Pseudo-core for xc-correction

xc_check: Exchange-correlation functional:
xc_check: GGA Perdew, Burke & Ernzerhof 1996
V l=0 = -2*Zval/r beyond r=  1.4606
V l=1 = -2*Zval/r beyond r=  1.4606
V l=2 = -2*Zval/r beyond r=  1.4606
V l=3 = -2*Zval/r beyond r=  1.4606
All V_l potentials equal beyond r=  1.4606
This should be close to max(r_c) in ps generation
All pots = -2*Zval/r beyond r=  1.4606

VLOCAL1: 99.0% of the norm of Vloc inside     20.347 Ry
VLOCAL1: 99.9% of the norm of Vloc inside     46.372 Ry
atom: Maximum radius for 4*pi*r*r*local-pseudopot. charge    1.76189
atom: Maximum radius for r*vlocal+2*Zval:    1.53550
GHOST: No ghost state for L =  0
GHOST: No ghost state for L =  1
GHOST: No ghost state for L =  2
GHOST: No ghost state for L =  3

KBgen: Kleinman-Bylander projectors: 
   l= 0   rc=  1.634559   el= -1.363963   Ekb=  5.296955   kbcos=  0.335621
   l= 1   rc=  1.614250   el= -0.521451   Ekb= -5.259161   kbcos= -0.433408
   l= 2   rc=  1.718383   el=  0.001991   Ekb= -1.271464   kbcos= -0.007566
   l= 3   rc=  1.761893   el=  0.003093   Ekb= -0.494769   kbcos= -0.001015

KBgen: Total number of  Kleinman-Bylander projectors:   16
atom: -------------------------------------------------------------------------

atom: SANKEY-TYPE ORBITALS:
atom: Selected multiple-zeta basis: split     

SPLIT: Orbitals with angular momentum L= 0

SPLIT: Basis orbitals for state 2s

SPLIT: PAO cut-off radius determined from an
SPLIT: energy shift=  0.007350 Ry

   izeta = 1
                 lambda =    1.000000
                     rc =    4.071465
                 energy =   -1.356470
                kinetic =    1.176977
    potential(screened) =   -2.533447
       potential(ionic) =   -8.057990

   izeta = 2
                 rmatch =    2.905100
              splitnorm =    0.150000
                 energy =   -1.158343
                kinetic =    1.813009
    potential(screened) =   -2.971352
       potential(ionic) =   -8.901931

SPLIT: Orbitals with angular momentum L= 1

SPLIT: Basis orbitals for state 2p

SPLIT: PAO cut-off radius determined from an
SPLIT: energy shift=  0.007350 Ry

   izeta = 1
                 lambda =    1.000000
                     rc =    4.972977
                 energy =   -0.513884
                kinetic =    3.441732
    potential(screened) =   -3.955616
       potential(ionic) =   -9.287901

   izeta = 2
                 rmatch =    3.054066
              splitnorm =    0.150000
                 energy =   -0.318226
                kinetic =    5.125348
    potential(screened) =   -5.443573
       potential(ionic) =  -11.380999

POLgen: Perturbative polarization orbital with L=  2

POLgen: Polarization orbital for state 2p

   izeta = 1
                     rc =    4.972977
                 energy =    1.607437
                kinetic =    3.268125
    potential(screened) =   -1.660688
       potential(ionic) =   -5.973652
atom: Total number of Sankey-type orbitals: 13

atm_pop: Valence configuration (for local Pseudopot. screening):
 2s( 2.00)                                                            
 2p( 3.00)                                                            
Vna: chval, zval:    5.00000   5.00000

Vna:  Cut-off radius for the neutral-atom potential:   4.972977
comcore: Pseudo-core radius Rcore=  1.554824

atom: _________________________________________________________________________

<basis_specs>
===============================================================================
C                    Z=   6    Mass=  12.010        Charge= 0.17977+309
Lmxo=1 Lmxkb= 3    BasisType=split      Semic=F
L=0  Nsemic=0  Cnfigmx=2
          n=1  nzeta=2  polorb=0
            splnorm:   0.15000    
               vcte:    0.0000    
               rinn:    0.0000    
                rcs:    0.0000      0.0000    
            lambdas:    1.0000      1.0000    
L=1  Nsemic=0  Cnfigmx=2
          n=1  nzeta=2  polorb=1
            splnorm:   0.15000    
               vcte:    0.0000    
               rinn:    0.0000    
                rcs:    0.0000      0.0000    
            lambdas:    1.0000      1.0000    
-------------------------------------------------------------------------------
L=0  Nkbl=1  erefs: 0.17977+309
L=1  Nkbl=1  erefs: 0.17977+309
L=2  Nkbl=1  erefs: 0.17977+309
L=3  Nkbl=1  erefs: 0.17977+309
===============================================================================
</basis_specs>

atom: Called for C                     (Z =   6)

read_vps: Pseudopotential generation method:
read_vps: ATM3      Troullier-Martins                       
Total valence charge:    4.00000

read_vps: Pseudopotential includes a core correction:
read_vps: Pseudo-core for xc-correction

xc_check: Exchange-correlation functional:
xc_check: GGA Perdew, Burke & Ernzerhof 1996
V l=0 = -2*Zval/r beyond r=  1.5227
V l=1 = -2*Zval/r beyond r=  1.5227
V l=2 = -2*Zval/r beyond r=  1.5227
V l=3 = -2*Zval/r beyond r=  1.5038
All V_l potentials equal beyond r=  1.5227
This should be close to max(r_c) in ps generation
All pots = -2*Zval/r beyond r=  1.5227

VLOCAL1: 99.0% of the norm of Vloc inside     18.722 Ry
VLOCAL1: 99.9% of the norm of Vloc inside     42.668 Ry
atom: Maximum radius for 4*pi*r*r*local-pseudopot. charge    1.83678
atom: Maximum radius for r*vlocal+2*Zval:    1.58088
GHOST: No ghost state for L =  0
GHOST: No ghost state for L =  1
GHOST: No ghost state for L =  2
GHOST: No ghost state for L =  3

KBgen: Kleinman-Bylander projectors: 
   l= 0   rc=  1.704034   el= -1.009801   Ekb=  5.335044   kbcos=  0.316824
   l= 1   rc=  1.704034   el= -0.388707   Ekb= -3.785862   kbcos= -0.366464
   l= 2   rc=  1.791422   el=  0.001971   Ekb= -0.970471   kbcos= -0.009212
   l= 3   rc=  1.859892   el=  0.003065   Ekb= -0.399525   kbcos= -0.001223

KBgen: Total number of  Kleinman-Bylander projectors:   16
atom: -------------------------------------------------------------------------

atom: SANKEY-TYPE ORBITALS:
atom: Selected multiple-zeta basis: split     

SPLIT: Orbitals with angular momentum L= 0

SPLIT: Basis orbitals for state 2s

SPLIT: PAO cut-off radius determined from an
SPLIT: energy shift=  0.007350 Ry

   izeta = 1
                 lambda =    1.000000
                     rc =    4.632753
                 energy =   -1.002270
                kinetic =    0.855760
    potential(screened) =   -1.858031
       potential(ionic) =   -5.417575

   izeta = 2
                 rmatch =    3.431921
              splitnorm =    0.150000
                 energy =   -0.867111
                kinetic =    1.300804
    potential(screened) =   -2.167915
       potential(ionic) =   -5.962684

SPLIT: Orbitals with angular momentum L= 1

SPLIT: Basis orbitals for state 2p

SPLIT: PAO cut-off radius determined from an
SPLIT: energy shift=  0.007350 Ry

   izeta = 1
                 lambda =    1.000000
                     rc =    5.658549
                 energy =   -0.381140
                kinetic =    2.399701
    potential(screened) =   -2.780841
       potential(ionic) =   -6.206085

   izeta = 2
                 rmatch =    3.653288
              splitnorm =    0.150000
                 energy =   -0.249149
                kinetic =    3.542762
    potential(screened) =   -3.791911
       potential(ionic) =   -7.581078

POLgen: Perturbative polarization orbital with L=  2

POLgen: Polarization orbital for state 2p

   izeta = 1
                     rc =    5.658549
                 energy =    1.109913
                kinetic =    2.304789
    potential(screened) =   -1.194876
       potential(ionic) =   -4.013592
atom: Total number of Sankey-type orbitals: 13

atm_pop: Valence configuration (for local Pseudopot. screening):
 2s( 2.00)                                                            
 2p( 2.00)                                                            
Vna: chval, zval:    4.00000   4.00000

Vna:  Cut-off radius for the neutral-atom potential:   5.658549
comcore: Pseudo-core radius Rcore=  1.791422

atom: _________________________________________________________________________

prinput: Basis input ----------------------------------------------------------

PAO.BasisType split     

%block ChemicalSpeciesLabel
    1    7 N                       # Species index, atomic number, species label
    2    6 C                       # Species index, atomic number, species label
%endblock ChemicalSpeciesLabel

%block PAO.Basis                 # Define Basis set
N                     2                    # Species label, number of l-shells
 n=2   0   2                         # n, l, Nzeta 
   4.071      2.905   
   1.000      1.000   
 n=2   1   2 P   1                   # n, l, Nzeta, Polarization, NzetaPol
   4.973      3.054   
   1.000      1.000   
C                     2                    # Species label, number of l-shells
 n=2   0   2                         # n, l, Nzeta 
   4.633      3.432   
   1.000      1.000   
 n=2   1   2 P   1                   # n, l, Nzeta, Polarization, NzetaPol
   5.659      3.653   
   1.000      1.000   
%endblock PAO.Basis

prinput: ----------------------------------------------------------------------

coor:   Atomic-coordinates input format  =     Fractional

siesta: Atomic coordinates (Bohr) and species
siesta:     -2.35420  38.89134   0.00000  1        1
siesta:     -2.35420  41.57980   0.00000  1        2
siesta:     -4.68258  34.85847   0.00000  1        3
siesta:     -4.68258  37.54693   0.00000  1        4
siesta:      4.63094  21.41544   0.00000  1        5
siesta:     -0.02582  21.41544   0.00000  1        6
siesta:      2.30256  22.75985   0.00000  1        7
siesta:     -2.35420  22.75985   0.00000  1        8
siesta:     -2.35420  25.44831   0.00000  1        9
siesta:    -11.66772  22.75985   0.00000  1       10
siesta:    -11.66772  25.44831   0.00000  1       11
siesta:     -9.33934  26.79272   0.00000  1       12
siesta:     -9.33934  29.48119   0.00000  1       13
siesta:     -4.68258  26.79272   0.00000  1       14
siesta:     -4.68258  29.48119   0.00000  1       15
siesta:     -7.01096  30.82560   0.00000  1       16
siesta:     -7.01096  33.51406   0.00000  1       17
siesta:     -0.02582  42.92421   0.00000  1       18
siesta:     -0.02582  45.61267   0.00000  1       19
siesta:     -0.02582   2.59549   0.00000  2       20
siesta:     -0.02582   5.28395   0.00000  2       21
siesta:      2.30256  38.89134   0.00000  2       22
siesta:      2.30256  41.57980   0.00000  2       23
siesta:      4.63094  34.85847   0.00000  2       24
siesta:      4.63094  37.54693   0.00000  2       25
siesta:      6.95932  30.82560   0.00000  2       26
siesta:      6.95932  33.51406   0.00000  2       27
siesta:      9.28770  26.79272   0.00000  2       28
siesta:      9.28770  29.48119   0.00000  2       29
siesta:      2.30256   6.62836   0.00000  2       30
siesta:      2.30256   9.31683   0.00000  2       31
siesta:      4.63094  10.66124   0.00000  2       32
siesta:      4.63094  13.34970   0.00000  2       33
siesta:      6.95932  14.69411   0.00000  2       34
siesta:      6.95932  17.38257   0.00000  2       35
siesta:      9.28770  18.72698   0.00000  2       36
siesta:      9.28770  21.41544   0.00000  2       37
siesta:     11.61608  22.75985   0.00000  2       38
siesta:     11.61608  25.44831   0.00000  2       39
siesta:     -2.35420   6.62836   0.00000  2       40
siesta:     -2.35420   9.31683   0.00000  2       41
siesta:     -0.02582  10.66124   0.00000  2       42
siesta:     -0.02582  13.34970   0.00000  2       43
siesta:      2.30256  14.69411   0.00000  2       44
siesta:      2.30256  17.38257   0.00000  2       45
siesta:      4.63094  18.72698   0.00000  2       46
siesta:      6.95932  22.75985   0.00000  2       47
siesta:      6.95932  25.44831   0.00000  2       48
siesta:     -4.68258  10.66124   0.00000  2       49
siesta:     -4.68258  13.34970   0.00000  2       50
siesta:     -2.35420  14.69411   0.00000  2       51
siesta:     -2.35420  17.38257   0.00000  2       52
siesta:     -0.02582  18.72698   0.00000  2       53
siesta:      2.30256  25.44831   0.00000  2       54
siesta:     -7.01096  14.69411   0.00000  2       55
siesta:     -7.01096  17.38257   0.00000  2       56
siesta:     -4.68258  18.72698   0.00000  2       57
siesta:     -4.68258  21.41544   0.00000  2       58
siesta:     -9.33934  18.72698   0.00000  2       59
siesta:     -9.33934  21.41544   0.00000  2       60
siesta:     -7.01096  22.75985   0.00000  2       61
siesta:     -7.01096  25.44831   0.00000  2       62
siesta:      4.63094  26.79272   0.00000  2       63
siesta:      4.63094  29.48119   0.00000  2       64
siesta:     -0.02582  26.79272   0.00000  2       65
siesta:     -0.02582  29.48119   0.00000  2       66
siesta:      2.30256  30.82560   0.00000  2       67
siesta:      2.30256  33.51406   0.00000  2       68
siesta:     -2.35420  30.82560   0.00000  2       69
siesta:     -2.35420  33.51406   0.00000  2       70
siesta:     -0.02582  34.85847   0.00000  2       71
siesta:     -0.02582  37.54693   0.00000  2       72

siesta: System type = slab      

initatomlists: Number of atoms, orbitals, and projectors:     72   936  1152

siesta: ******************** Simulation parameters ****************************
siesta:
siesta: The following are some of the parameters of the simulation.
siesta: A complete list of the parameters used, including default values,
siesta: can be found in file out.fdf
siesta:
redata: Non-Collinear-spin run           =     F
redata: SpinPolarized (Up/Down) run      =     F
redata: Number of spin components        =     1
redata: Long output                      =     F
redata: Number of Atomic Species         =        2
redata: Charge density info will appear in .RHO file
redata: Write Mulliken Pop.              =     NO
redata: Mesh Cutoff                      =   200.0000  Ry
redata: Net charge of the system         =     0.0000 |e|
redata: Max. number of SCF Iter          =      500
redata: SCF convergence failure will abort job
redata: Performing Pulay mixing using    =    10 iterations
redata: Mix DM in first SCF step ?       =     F
redata: Write Pulay info on disk?        =     F
redata: Discard 1st Pulay DM after  kick =     F
redata: New DM Mixing Weight             =     0.0500
redata: New DM Occupancy tolerance       = 0.000000000001
redata: No kicks to SCF
redata: DM Mixing Weight for Kicks       =     0.5000
redata: DM Tolerance for SCF             =     0.000100
redata: Require Energy convergence for SCF =     F
redata: DM Energy tolerance for SCF      =     0.000100 eV
redata: Require Harris convergence for SCF =     F
redata: DM Harris energy tolerance for SCF =     0.000100 eV
redata: Using Saved Data (generic)   =     F
redata: Use continuation files for DM    =     T
redata: Neglect nonoverlap interactions  =     F
redata: Method of Calculation            =     Diagonalization
redata: Divide and Conquer               =     T
redata: Electronic Temperature           =     0.0019  Ry
redata: Fix the spin of the system       =     F
redata: Dynamics option                  =     Verlet MD run
redata: Initial MD time step             =        1
redata:   Final MD time step             =        1
redata: Length of MD time step           =     1.0000  fs
redata: Initial Temperature of MD run    =     0.0000  K
redata: Perform a MD quench              =     F
redata: ***********************************************************************
Total number of electrons:   307.000000
Total ionic charge:   307.000000

* ProcessorY, Blocksize:    2  24

k-point displ. along   1 input, could be:     0.50    0.00
k-point displ. along   2 input, could be:     0.50    0.00
 Kpoints in:          231 . Kpoints trimmed:          231

siesta: k-grid: Number of k-points =   231
siesta: k-grid: Cutoff (effective) =     5.000 Ang
siesta: k-grid: Supercell and displacements
siesta: k-grid:   21   0   0      0.500
siesta: k-grid:    0  21   0      0.500
siesta: k-grid:    0   0   1      0.000
Naive supercell factors:     2    2    2

superc: Internal auxiliary supercell:     2 x     2 x     2  =       8
superc: Number of atoms, orbitals, and projectors:    576   7488   9216

* Maximum dynamic memory allocated =     4 MB

siesta:                 ==============================
                            Begin MD step =      1
                        ==============================

superc: Internal auxiliary supercell:     2 x     2 x     2  =       8
superc: Number of atoms, orbitals, and projectors:    576   7488   9216

outcell: Unit cell vectors (Ang):
       12.804619    7.392750    0.000000
        0.000000   14.785500    0.000000
        0.000000    0.000000   10.000000

outcell: Cell vector modules (Ang)   :   14.785500   14.785500   10.000000
outcell: Cell angles (23,13,12) (deg):     90.0000     90.0000     60.0000
outcell: Cell volume (Ang**3)        :   1893.2269
New_DM. Step:     1
Initializing Density Matrix...

InitMesh: MESH =   120 x   120 x    90 =     1296000
InitMesh: Mesh cutoff (required, used) =   200.000   223.865 Ry

* Maximum dynamic memory allocated =   184 MB

stepf: Fermi-Dirac step function

siesta: Program's energy decomposition (eV):
siesta: Ebs     =     -6238.278654
siesta: Eions   =     21457.201110
siesta: Ena     =      4913.251356
siesta: Ekin    =      7972.707975
siesta: Enl     =        83.850874
siesta: DEna    =        -0.000015
siesta: DUscf   =         0.000000
siesta: DUext   =         0.000000
siesta: Exc     =     -4645.781175
siesta: eta*DQ  =         0.000000
siesta: Emadel  =         0.000000
siesta: Emeta   =         0.000000
siesta: Emolmec =         0.000000
siesta: Ekinion =         0.000000
siesta: Eharris =    -12770.644209
siesta: Etot    =    -13133.172096
siesta: FreeEng =    -13133.172096

siesta: iscf   Eharris(eV)      E_KS(eV)   FreeEng(eV)   dDmax  Ef(eV)
siesta:    1   -12770.6442   -13133.1721   -13133.1721  6.0184 -6.8378
timer: Routine,Calls,Time,% = IterSCF        1    4137.568  99.73
elaps: Routine,Calls,Wall,% = IterSCF        1     517.787  99.73
siesta:    2   -17832.2140   -12053.3839   -12053.4463 18.9650 -5.1451
siesta:    3   -12700.2218   -12934.2561   -12934.3142  2.4203 -5.0105
siesta:    4   -12678.2871   -12790.6646   -12790.7704  1.3283 -4.2571
siesta:    5   -12623.9927   -12729.9055   -12729.9808  0.8544 -3.9328
siesta:    6   -12616.0892   -12680.3289   -12680.3597  0.7837 -3.6671
siesta:    7   -12609.0737   -12661.9259   -12661.9728  0.6789 -3.7322
siesta:    8   -12607.7669   -12650.2329   -12650.2689  0.5782 -3.8242
siesta:    9   -12606.7251   -12641.7489   -12641.7717  0.5242 -3.7489
siesta:   10   -12606.6518   -12616.0255   -12616.0607  0.3655 -3.6986
siesta:   11   -12606.6494   -12596.2786   -12596.3320  0.2670 -3.7603
siesta:   12   -12606.5454   -12588.7928   -12588.8225  0.1787 -3.6773
siesta:   13   -12606.0740   -12586.8707   -12586.9195  0.1170 -3.7178
siesta:   14   -12605.5408   -12589.7379   -12589.7846  0.1122 -3.7205
siesta:   15   -12605.3560   -12590.8985   -12590.9432  0.1446 -3.7385
siesta:   16   -12605.3029   -12592.4180   -12592.4598  0.1139 -3.7229
siesta:   17   -12605.2244   -12594.1607   -12594.1970  0.0716 -3.7177
siesta:   18   -12605.2017   -12597.8319   -12597.8761  0.0481 -3.7201
siesta:   19   -12605.1950   -12600.9155   -12600.9604  0.0647 -3.7295
siesta:   20   -12605.1878   -12602.0807   -12602.1221  0.0479 -3.7340
siesta:   21   -12605.1794   -12604.2109   -12604.2527  0.0212 -3.7301
siesta:   22   -12605.1780   -12604.9459   -12604.9896  0.0190 -3.7244
siesta:   23   -12605.1756   -12605.0909   -12605.1349  0.0201 -3.7160
siesta:   24   -12605.1752   -12605.0830   -12605.1277  0.0179 -3.7147
siesta:   25   -12605.1746   -12605.2619   -12605.3066  0.0094 -3.7148
siesta:   26   -12605.1745   -12605.4752   -12605.5202  0.0060 -3.7151
siesta:   27   -12605.1744   -12605.4729   -12605.5178  0.0036 -3.7153
siesta:   28   -12605.1744   -12605.3523   -12605.3973  0.0014 -3.7155
siesta:   29   -12605.1744   -12605.2977   -12605.3426  0.0008 -3.7158
siesta:   30   -12605.1744   -12605.2080   -12605.2529  0.0005 -3.7161
siesta:   31   -12605.1744   -12605.1931   -12605.2380  0.0004 -3.7163
siesta:   32   -12605.1744   -12605.2051   -12605.2499  0.0004 -3.7164
siesta:   33   -12605.1744   -12605.2114   -12605.2562  0.0003 -3.7165
siesta:   34   -12605.1744   -12605.2019   -12605.2467  0.0002 -3.7166
siesta:   35   -12605.1744   -12605.1923   -12605.2372  0.0002 -3.7166
siesta:   36   -12605.1744   -12605.1861   -12605.2309  0.0001 -3.7166
siesta:   37   -12605.1744   -12605.1818   -12605.2267  0.0001 -3.7166
siesta:   38   -12605.1744   -12605.1770   -12605.2218  0.0000 -3.7166

siesta: E_KS(eV) =           -12605.1754

siesta: E_KS - E_eggbox =    -12605.1754

siesta: Atomic forces (eV/Ang):
----------------------------------------
   Tot   -0.119463   -0.098695    0.000000
----------------------------------------
   Max  688.433208
   Res  173.140213    sqrt( Sum f_i^2 / 3N )
----------------------------------------
   Max  688.433208    constrained

Stress-tensor-Voigt (kbar):     -641.16    -3076.44       -0.05        8.95        0.00        0.00
(Free)E + p*V (eV/cell)   -11140.9022
Target enthalpy (eV/cell)   -12605.2202

siesta: Stress tensor (static) (eV/Ang**3):
        -0.400177    0.005587    0.000000
         0.005587   -1.920145    0.000000
         0.000000    0.000000   -0.000031

siesta: Pressure (static):       1239.21830628  kBar

siesta: Stress tensor (total) (eV/Ang**3):
        -0.400177    0.005587    0.000000
         0.005587   -1.920145    0.000000
         0.000000    0.000000   -0.000031

siesta: Pressure (total):       1239.21830628  kBar

siesta: Temp_ion =       0.000 K

* Maximum dynamic memory allocated =   200 MB
Computing bands...

siesta: Program's energy decomposition (eV):
siesta: Ebs     =     -5025.232900
siesta: Eions   =     21457.201110
siesta: Ena     =      4913.251356
siesta: Ekin    =     11043.201115
siesta: Enl     =     -1618.455176
siesta: DEna    =      -777.994627
siesta: DUscf   =       108.615315
siesta: DUext   =         0.000000
siesta: Exc     =     -4816.592266
siesta: eta*DQ  =         0.000000
siesta: Emadel  =         0.000000
siesta: Emeta   =         0.000000
siesta: Emolmec =         0.000000
siesta: Ekinion =         0.000000
siesta: Eharris =    -12605.174414
siesta: Etot    =    -12605.175393
siesta: FreeEng =    -12605.220231

siesta: Final energy (eV):
siesta:  Band Struct. =   -5025.232900
siesta:       Kinetic =   11043.201115
siesta:       Hartree =   35347.008201
siesta:    Ext. field =       0.000000
siesta:   Exch.-corr. =   -4816.592266
siesta:  Ion-electron =  -81285.269681
siesta:       Ion-ion =   27106.477237
siesta:       Ekinion =       0.000000
siesta:         Total =  -12605.175393

siesta: Atomic forces (eV/Ang):
siesta:      1    2.828277  111.794910    0.000000
siesta:      2  -26.341564 -655.878577    0.000000
siesta:      3  -23.834155    4.864547    0.000000
siesta:      4  -26.653123 -654.748127    0.000000
siesta:      5    0.553145   -1.355745    0.000000
siesta:      6    0.870885   -2.528038    0.000000
siesta:      7    0.802512    1.224575    0.000000
siesta:      8   -1.774401    0.607622    0.000000
siesta:      9    0.800250    1.621142    0.000000
siesta:     10    1.480049    3.725444    0.000000
siesta:     11   -0.050183   -2.928724    0.000000
siesta:     12    3.306064    0.107766    0.000000
siesta:     13   -0.441802    0.530342    0.000000
siesta:     14   -2.524909   -1.031007    0.000000
siesta:     15    1.053355   -1.903729    0.000000
siesta:     16   -0.183759   -1.289089    0.000000
siesta:     17    0.063013   -2.899367    0.000000
siesta:     18    0.343846  109.776415    0.000000
siesta:     19   -2.580538 -646.966590    0.000000
siesta:     20    2.377934  547.203216    0.000000
siesta:     21   -5.446598 -128.600932    0.000000
siesta:     22    1.353562  128.297684    0.000000
siesta:     23   20.551888 -554.885783    0.000000
siesta:     24   26.765927    4.594263    0.000000
siesta:     25   33.364098 -549.515308    0.000000
siesta:     26    2.172206   -0.075302    0.000000
siesta:     27   -3.114087    2.441124    0.000000
siesta:     28    2.209435    2.337566    0.000000
siesta:     29   -1.272007    0.125367    0.000000
siesta:     30   15.298704  546.261092    0.000000
siesta:     31   -3.289253 -127.551979    0.000000
siesta:     32   33.143124  548.794950    0.000000
siesta:     33   25.700188   -5.940513    0.000000
siesta:     34   -2.988053   -1.973633    0.000000
siesta:     35    1.827759    0.255347    0.000000
siesta:     36   -1.240511   -0.315627    0.000000
siesta:     37    0.897104   -2.081431    0.000000
siesta:     38    0.003367    7.158143    0.000000
siesta:     39   -0.353971   -7.275436    0.000000
siesta:     40  -37.136707  551.437796    0.000000
siesta:     41    1.594124 -127.750134    0.000000
siesta:     42  -19.471702  549.308798    0.000000
siesta:     43    3.392526 -122.938101    0.000000
siesta:     44    2.334289  558.567354    0.000000
siesta:     45   24.530460   -3.100149    0.000000
siesta:     46   -1.999171    4.135326    0.000000
siesta:     47   -0.609574    1.073027    0.000000
siesta:     48   -0.781540   -0.848663    0.000000
siesta:     49  -23.417283  658.021453    0.000000
siesta:     50  -25.233027   -4.975032    0.000000
siesta:     51   -0.087332  684.267670    0.000000
siesta:     52  -25.155183   -5.288119    0.000000
siesta:     53    3.021086  688.433208    0.000000
siesta:     54   -1.879401   -0.223113    0.000000
siesta:     55    2.235879   -0.616796    0.000000
siesta:     56   -1.999008   -0.788623    0.000000
siesta:     57    2.208997    4.585035    0.000000
siesta:     58    0.263464   -0.622041    0.000000
siesta:     59   -0.216546    0.633454    0.000000
siesta:     60   -1.915185   -0.365926    0.000000
siesta:     61    0.976027    1.708784    0.000000
siesta:     62   -0.192277    0.185364    0.000000
siesta:     63    0.815630    0.617014    0.000000
siesta:     64   -1.342623   -3.060485    0.000000
siesta:     65    0.116913   -2.237898    0.000000
siesta:     66   -2.295177 -564.192924    0.000000
siesta:     67   22.247418    7.140378    0.000000
siesta:     68   24.463494 -556.274167    0.000000
siesta:     69  -22.133337    9.023149    0.000000
siesta:     70   -2.855800 -572.252636    0.000000
siesta:     71    1.827981  127.810947    0.000000
siesta:     72    2.895345 -553.489223    0.000000
siesta: ----------------------------------------
siesta:    Tot   -0.119463   -0.098695    0.000000

siesta: Stress tensor (static) (eV/Ang**3):
siesta:    -0.400177    0.005587    0.000000
siesta:     0.005587   -1.920145    0.000000
siesta:     0.000000    0.000000   -0.000031

siesta: Cell volume =       1893.226884 Ang**3

siesta: Pressure (static):
siesta:                Solid            Molecule  Units
siesta:           0.00842387          0.13632192  Ry/Bohr**3
siesta:           0.77345087         12.51661499  eV/Ang**3
siesta:        1239.21830628      20054.04483911  kBar
(Free)E+ p_basis*V_orbitals  =      -12577.198921
(Free)Eharris+ p_basis*V_orbitals  =      -12577.196358

siesta: Electric dipole (a.u.)  =    0.000000    0.000000    0.000000
siesta: Electric dipole (Debye) =    0.000000    0.000000    0.000000

* Maximum dynamic memory allocated : Node    0 =   200 MB
* Maximum dynamic memory allocated : Node    1 =    71 MB
* Maximum dynamic memory allocated : Node    2 =    74 MB
* Maximum dynamic memory allocated : Node    3 =   191 MB
* Maximum dynamic memory allocated : Node    4 =   188 MB
* Maximum dynamic memory allocated : Node    5 =    70 MB
* Maximum dynamic memory allocated : Node    6 =    72 MB
* Maximum dynamic memory allocated : Node    7 =   173 MB

* Maximum memory occured during matrixMtoO                    

timer: CPU execution times:
timer:  Routine       Calls   Time/call    Tot.time        %
timer:  siesta            1  156599.875  156599.875   100.00
timer:  Setup             1       3.050       3.050     0.00
timer:  bands             3     268.558     805.673     0.51
timer:  writewave         1       0.018       0.018     0.00
timer:  KSV_init          1       0.002       0.002     0.00
timer:  IterMD            1  155785.300  155785.300    99.48
timer:  hsparse           1       0.234       0.234     0.00
timer:  overlap           1       7.701       7.701     0.00
timer:  IterSCF          38    4095.249  155619.443    99.37
timer:  kinefsm           2       3.957       7.914     0.01
timer:  nlefsm            2      18.574      37.147     0.02
timer:  DHSCF            39      86.132    3359.160     2.15
timer:  DHSCF1            1       0.763       0.763     0.00
timer:  DHSCF2            1      33.033      33.033     0.02
timer:  REORD           314       0.010       3.158     0.00
timer:  POISON           40       2.237      89.474     0.06
timer:  DHSCF3           39      84.450    3293.538     2.10
timer:  rhoofd           39      16.901     659.147     0.42
timer:  cellXC           39       3.452     134.611     0.09
timer:  vmat             39      40.260    1570.133     1.00
timer:  MolMec            2       0.000       0.000     0.00
timer:  diagon           38    4007.808  152296.719    97.25
timer:  c-eigval       8899       6.659   59257.523    37.84
timer:  c-buildHS      8899       0.111     992.102     0.63
timer:  cdiag         17677       6.867  121386.760    77.51
timer:  cdiag1        17677       0.426    7532.491     4.81
timer:  cdiag2        17677       1.909   33736.915    21.54
timer:  cdiag3        17677       3.939   69635.129    44.47
timer:  cdiag4        17677       0.205    3623.697     2.31
timer:  c-eigvec       8778       7.252   63659.685    40.65
timer:  c-buildD       8778       3.433   30136.958    19.24
timer:  DHSCF4            1      29.770      29.770     0.02
timer:  dfscf             1      27.975      27.975     0.02
timer:  overfsm           1       0.398       0.398     0.00
timer:  optical           1       5.111       5.111     0.00
  

elaps: ELAPSED times:
elaps:  Routine       Calls   Time/call    Tot.time        %
elaps:  siesta            1   19596.104   19596.104   100.00
elaps:  Setup             1       0.381       0.381     0.00
elaps:  bands             3      33.620     100.860     0.51
elaps:  writewave         1       0.002       0.002     0.00
elaps:  KSV_init          1       0.000       0.000     0.00
elaps:  IterMD            1   19494.188   19494.188    99.48
elaps:  hsparse           1       0.030       0.030     0.00
elaps:  overlap           1       0.967       0.967     0.00
elaps:  IterSCF          38     512.459   19473.444    99.37
elaps:  kinefsm           2       0.498       0.996     0.01
elaps:  nlefsm            2       2.337       4.674     0.02
elaps:  DHSCF            39      10.878     424.255     2.16
elaps:  DHSCF1            1       0.099       0.099     0.00
elaps:  DHSCF2            1       4.131       4.131     0.02
elaps:  REORD           314       0.001       0.415     0.00
elaps:  POISON           40       0.280      11.193     0.06
elaps:  DHSCF3           39      10.565     412.017     2.10
elaps:  rhoofd           39       4.762     185.724     0.95
elaps:  cellXC           39       0.431      16.814     0.09
elaps:  vmat             39       5.036     196.411     1.00
elaps:  MolMec            2       0.000       0.000     0.00
elaps:  diagon           38     501.528   19058.059    97.25
elaps:  c-eigval       8899       0.833    7414.237    37.84
elaps:  c-buildHS      8899       0.015     136.412     0.70
elaps:  cdiag         17677       0.854   15104.664    77.08
elaps:  cdiag1        17677       0.053     931.946     4.76
elaps:  cdiag2        17677       0.239    4221.084    21.54
elaps:  cdiag3        17677       0.494    8725.132    44.52
elaps:  cdiag4        17677       0.026     461.900     2.36
elaps:  c-eigvec       8778       0.903    7924.817    40.44
elaps:  c-buildD       8778       0.434    3812.496    19.46
elaps:  DHSCF4            1       7.727       7.727     0.04
elaps:  dfscf             1       7.339       7.339     0.04
elaps:  overfsm           1       0.051       0.051     0.00
elaps:  optical           1       0.000       0.000     0.00
  
>> End of run:   2-MAY-2016   1:31:28
