Siesta Version:                                        siesta-3.2-pl-3
Architecture  : x86_64-unknown-linux-gnu--unknown
Compiler flags: mpiifort -g -O2 -fPIC -xSSE4.1 -fp-model source -shared-intel 
PARALLEL version

* Running on    8 nodes in parallel
>> Start of run:  27-APR-2016  23:40:11

                           ***********************       
                           *  WELCOME TO SIESTA  *       
                           ***********************       

reinit: Reading from standard input
************************** Dump of input data file ****************************
#(1) General system descriptors
SystemName            GRP_doping    # Descriptive name of the system
SystemLabel           GRP_doping    # Short name for naming files
%include STRUCT.fdf
%include KPT.fdf
%include BASIS.fdf
#%include TS.fdf # for transiesta calculation
#(4) DFT, Grid, SCF
XC.functional         GGA           # LDA or GGA (default = LDA)
XC.authors            PBE           # CA (Ceperley-Aldr) = PZ
                                    #    (Perdew-Zunger) - LDA - Default
                                    # PW92 (Perdew-Wang-92) - LDA
                                    # PBE (Perdew-Burke-Ernzerhof) - GGA
MeshCutoff            200.000000    Ry      # Default: 50.0 Ry ~ 0.444 Bohr
                                    #         100.0 Ry ~ 0.314 Bohr
MaxSCFIterations      500           # Default: 50
DM.MixingWeight       0.05          # Default: 0.25
DM.NumberPulay        10            # Default: 0
DM.PulayOnFile        F             # SystemLabel.P1, SystemLabel.P2
DM.Tolerance          1.d-4         # Default: 1.d-4
DM.UseSaveDM          .true.        # because of the bug
SCFMustConverge       .true.
NeglNonOverlapInt     F             # Default: F
#(5) Eigenvalue problem: order-N or diagonalization
SolutionMethod        Diagon        # or Transiesta
ElectronicTemperature 300.0 K       # Default: 300.0 K
#(6) Molecular dynamics and relaxations
#MD.TypeOfRun          CG            # Type of dynamics:
#MD.VariableCell       F
#MD.NumCGsteps         0           # 0 for single-point / 100 for gopt
#MD.MaxCGDispl         0.2 Bohr      # Default: 0.2 Bohr
#MD.MaxForceTol        0.02 eV/Ang   # Default: 0.04 eV/Ang
#MD.MaxStressTol       1.0 GPa       # Default: 1.0 GPa
# Geometry Constraints
#%block GeometryConstraints
#	position from 1 to 44
#%endblock GeometryConstraints
BandLinesScale   pi/a
%block BandLines
 1   0.00000000  0.00000000  0.00000000
50   0.00000000  0.07809418  0.00000000
50   0.04509075  0.07809242  0.00000000
20   0.00000000  0.00000000  0.00000000
%endblock BandLines
************************** End of input data file *****************************

reinit: -----------------------------------------------------------------------
reinit: System Name: GRP_doping
reinit: -----------------------------------------------------------------------
reinit: System Label: GRP_doping                                                  
reinit: -----------------------------------------------------------------------

initatom: Reading input for the pseudopotentials and atomic orbitals ----------
 Species number:            1  Label: B Atomic number:           5
 Species number:            2  Label: C Atomic number:           6
Ground state valence configuration:   2s02  2p01
Reading pseudopotential information in formatted form from B.psf

Valence configuration for pseudopotential generation:
2s( 2.00) rc: 1.74
2p( 1.00) rc: 1.74
3d( 0.00) rc: 1.74
4f( 0.00) rc: 1.74
Ground state valence configuration:   2s02  2p02
Reading pseudopotential information in formatted form from C.psf

Valence configuration for pseudopotential generation:
2s( 2.00) rc: 1.54
2p( 2.00) rc: 1.54
3d( 0.00) rc: 1.54
4f( 0.00) rc: 1.54
For B, standard SIESTA heuristics set lmxkb to 3
 (one more than the basis l, including polarization orbitals).
Use PS.lmax or PS.KBprojectors blocks to override.
For C, standard SIESTA heuristics set lmxkb to 3
 (one more than the basis l, including polarization orbitals).
Use PS.lmax or PS.KBprojectors blocks to override.

<basis_specs>
===============================================================================
B                    Z=   5    Mass=  10.810        Charge= 0.17977+309
Lmxo=1 Lmxkb= 3    BasisType=split      Semic=F
L=0  Nsemic=0  Cnfigmx=2
          n=1  nzeta=2  polorb=0
            splnorm:   0.15000    
               vcte:    0.0000    
               rinn:    0.0000    
                rcs:    0.0000      0.0000    
            lambdas:    1.0000      1.0000    
L=1  Nsemic=0  Cnfigmx=2
          n=1  nzeta=2  polorb=1
            splnorm:   0.15000    
               vcte:    0.0000    
               rinn:    0.0000    
                rcs:    0.0000      0.0000    
            lambdas:    1.0000      1.0000    
-------------------------------------------------------------------------------
L=0  Nkbl=1  erefs: 0.17977+309
L=1  Nkbl=1  erefs: 0.17977+309
L=2  Nkbl=1  erefs: 0.17977+309
L=3  Nkbl=1  erefs: 0.17977+309
===============================================================================
</basis_specs>

atom: Called for B                     (Z =   5)

read_vps: Pseudopotential generation method:
read_vps: ATM3      Troullier-Martins                       
Total valence charge:    3.00000

read_vps: Pseudopotential includes a core correction:
read_vps: Pseudo-core for xc-correction

xc_check: Exchange-correlation functional:
xc_check: GGA Perdew, Burke & Ernzerhof 1996
V l=0 = -2*Zval/r beyond r=  1.7165
V l=1 = -2*Zval/r beyond r=  1.7165
V l=2 = -2*Zval/r beyond r=  1.7165
V l=3 = -2*Zval/r beyond r=  1.6951
All V_l potentials equal beyond r=  1.7165
This should be close to max(r_c) in ps generation
All pots = -2*Zval/r beyond r=  1.7165

VLOCAL1: 99.0% of the norm of Vloc inside     14.733 Ry
VLOCAL1: 99.9% of the norm of Vloc inside     33.577 Ry
atom: Maximum radius for 4*pi*r*r*local-pseudopot. charge    2.04484
atom: Maximum radius for r*vlocal+2*Zval:    1.75994
GHOST: No ghost state for L =  0
GHOST: No ghost state for L =  1
GHOST: No ghost state for L =  2
GHOST: No ghost state for L =  3

KBgen: Kleinman-Bylander projectors: 
   l= 0   rc=  1.897051   el= -0.693730   Ekb=  4.595746   kbcos=  0.286105
   l= 1   rc=  1.920920   el= -0.265236   Ekb= -2.350715   kbcos= -0.315747
   l= 2   rc=  2.044840   el=  0.002055   Ekb= -0.690767   kbcos= -0.013822
   l= 3   rc=  2.149707   el=  0.003188   Ekb= -0.315358   kbcos= -0.002055

KBgen: Total number of  Kleinman-Bylander projectors:   16
atom: -------------------------------------------------------------------------

atom: SANKEY-TYPE ORBITALS:
atom: Selected multiple-zeta basis: split     

SPLIT: Orbitals with angular momentum L= 0

SPLIT: Basis orbitals for state 2s

SPLIT: PAO cut-off radius determined from an
SPLIT: energy shift=  0.007350 Ry

   izeta = 1
                 lambda =    1.000000
                     rc =    5.422032
                 energy =   -0.686029
                kinetic =    0.576707
    potential(screened) =   -1.262736
       potential(ionic) =   -3.271094

   izeta = 2
                 rmatch =    4.222573
              splitnorm =    0.150000
                 energy =   -0.602132
                kinetic =    0.858975
    potential(screened) =   -1.461107
       potential(ionic) =   -3.582536

SPLIT: Orbitals with angular momentum L= 1

SPLIT: Basis orbitals for state 2p

SPLIT: PAO cut-off radius determined from an
SPLIT: energy shift=  0.007350 Ry

   izeta = 1
                 lambda =    1.000000
                     rc =    6.790259
                 energy =   -0.258578
                kinetic =    1.481412
    potential(screened) =   -1.739989
       potential(ionic) =   -3.657461

   izeta = 2
                 rmatch =    4.608740
              splitnorm =    0.150000
                 energy =   -0.173757
                kinetic =    2.186690
    potential(screened) =   -2.360447
       potential(ionic) =   -4.464260

POLgen: Perturbative polarization orbital with L=  2

POLgen: Polarization orbital for state 2p

   izeta = 1
                     rc =    6.790259
                 energy =    0.684082
                kinetic =    1.471481
    potential(screened) =   -0.787399
       potential(ionic) =   -2.406985
atom: Total number of Sankey-type orbitals: 13

atm_pop: Valence configuration (for local Pseudopot. screening):
 2s( 2.00)                                                            
 2p( 1.00)                                                            
Vna: chval, zval:    3.00000   3.00000

Vna:  Cut-off radius for the neutral-atom potential:   6.790259
comcore: Pseudo-core radius Rcore=  2.122997

atom: _________________________________________________________________________

<basis_specs>
===============================================================================
C                    Z=   6    Mass=  12.010        Charge= 0.17977+309
Lmxo=1 Lmxkb= 3    BasisType=split      Semic=F
L=0  Nsemic=0  Cnfigmx=2
          n=1  nzeta=2  polorb=0
            splnorm:   0.15000    
               vcte:    0.0000    
               rinn:    0.0000    
                rcs:    0.0000      0.0000    
            lambdas:    1.0000      1.0000    
L=1  Nsemic=0  Cnfigmx=2
          n=1  nzeta=2  polorb=1
            splnorm:   0.15000    
               vcte:    0.0000    
               rinn:    0.0000    
                rcs:    0.0000      0.0000    
            lambdas:    1.0000      1.0000    
-------------------------------------------------------------------------------
L=0  Nkbl=1  erefs: 0.17977+309
L=1  Nkbl=1  erefs: 0.17977+309
L=2  Nkbl=1  erefs: 0.17977+309
L=3  Nkbl=1  erefs: 0.17977+309
===============================================================================
</basis_specs>

atom: Called for C                     (Z =   6)

read_vps: Pseudopotential generation method:
read_vps: ATM3      Troullier-Martins                       
Total valence charge:    4.00000

read_vps: Pseudopotential includes a core correction:
read_vps: Pseudo-core for xc-correction

xc_check: Exchange-correlation functional:
xc_check: GGA Perdew, Burke & Ernzerhof 1996
V l=0 = -2*Zval/r beyond r=  1.5227
V l=1 = -2*Zval/r beyond r=  1.5227
V l=2 = -2*Zval/r beyond r=  1.5227
V l=3 = -2*Zval/r beyond r=  1.5038
All V_l potentials equal beyond r=  1.5227
This should be close to max(r_c) in ps generation
All pots = -2*Zval/r beyond r=  1.5227

VLOCAL1: 99.0% of the norm of Vloc inside     18.722 Ry
VLOCAL1: 99.9% of the norm of Vloc inside     42.668 Ry
atom: Maximum radius for 4*pi*r*r*local-pseudopot. charge    1.83678
atom: Maximum radius for r*vlocal+2*Zval:    1.58088
GHOST: No ghost state for L =  0
GHOST: No ghost state for L =  1
GHOST: No ghost state for L =  2
GHOST: No ghost state for L =  3

KBgen: Kleinman-Bylander projectors: 
   l= 0   rc=  1.704034   el= -1.009801   Ekb=  5.335044   kbcos=  0.316824
   l= 1   rc=  1.704034   el= -0.388707   Ekb= -3.785862   kbcos= -0.366464
   l= 2   rc=  1.791422   el=  0.001971   Ekb= -0.970471   kbcos= -0.009212
   l= 3   rc=  1.859892   el=  0.003065   Ekb= -0.399525   kbcos= -0.001223

KBgen: Total number of  Kleinman-Bylander projectors:   16
atom: -------------------------------------------------------------------------

atom: SANKEY-TYPE ORBITALS:
atom: Selected multiple-zeta basis: split     

SPLIT: Orbitals with angular momentum L= 0

SPLIT: Basis orbitals for state 2s

SPLIT: PAO cut-off radius determined from an
SPLIT: energy shift=  0.007350 Ry

   izeta = 1
                 lambda =    1.000000
                     rc =    4.632753
                 energy =   -1.002270
                kinetic =    0.855760
    potential(screened) =   -1.858031
       potential(ionic) =   -5.417575

   izeta = 2
                 rmatch =    3.431921
              splitnorm =    0.150000
                 energy =   -0.867111
                kinetic =    1.300804
    potential(screened) =   -2.167915
       potential(ionic) =   -5.962684

SPLIT: Orbitals with angular momentum L= 1

SPLIT: Basis orbitals for state 2p

SPLIT: PAO cut-off radius determined from an
SPLIT: energy shift=  0.007350 Ry

   izeta = 1
                 lambda =    1.000000
                     rc =    5.658549
                 energy =   -0.381140
                kinetic =    2.399701
    potential(screened) =   -2.780841
       potential(ionic) =   -6.206085

   izeta = 2
                 rmatch =    3.653288
              splitnorm =    0.150000
                 energy =   -0.249149
                kinetic =    3.542762
    potential(screened) =   -3.791911
       potential(ionic) =   -7.581078

POLgen: Perturbative polarization orbital with L=  2

POLgen: Polarization orbital for state 2p

   izeta = 1
                     rc =    5.658549
                 energy =    1.109913
                kinetic =    2.304789
    potential(screened) =   -1.194876
       potential(ionic) =   -4.013592
atom: Total number of Sankey-type orbitals: 13

atm_pop: Valence configuration (for local Pseudopot. screening):
 2s( 2.00)                                                            
 2p( 2.00)                                                            
Vna: chval, zval:    4.00000   4.00000

Vna:  Cut-off radius for the neutral-atom potential:   5.658549
comcore: Pseudo-core radius Rcore=  1.791422

atom: _________________________________________________________________________

prinput: Basis input ----------------------------------------------------------

PAO.BasisType split     

%block ChemicalSpeciesLabel
    1    5 B                       # Species index, atomic number, species label
    2    6 C                       # Species index, atomic number, species label
%endblock ChemicalSpeciesLabel

%block PAO.Basis                 # Define Basis set
B                     2                    # Species label, number of l-shells
 n=2   0   2                         # n, l, Nzeta 
   5.422      4.223   
   1.000      1.000   
 n=2   1   2 P   1                   # n, l, Nzeta, Polarization, NzetaPol
   6.790      4.609   
   1.000      1.000   
C                     2                    # Species label, number of l-shells
 n=2   0   2                         # n, l, Nzeta 
   4.633      3.432   
   1.000      1.000   
 n=2   1   2 P   1                   # n, l, Nzeta, Polarization, NzetaPol
   5.659      3.653   
   1.000      1.000   
%endblock PAO.Basis

prinput: ----------------------------------------------------------------------

coor:   Atomic-coordinates input format  =     Fractional

siesta: Atomic coordinates (Bohr) and species
siesta:     -0.02582   5.28395   0.00000  1        1
siesta:     -2.35420  38.89134   0.00000  1        2
siesta:     -2.35420  41.57980   0.00000  1        3
siesta:      2.30256  38.89134   0.00000  1        4
siesta:      2.30256  41.57980   0.00000  1        5
siesta:      2.30256   6.62836   0.00000  1        6
siesta:      2.30256   9.31683   0.00000  1        7
siesta:     -2.35420   6.62836   0.00000  1        8
siesta:     -2.35420   9.31683   0.00000  1        9
siesta:     -0.02582  10.66124   0.00000  1       10
siesta:     -4.68258  21.41544   0.00000  1       11
siesta:     -9.33934  18.72698   0.00000  1       12
siesta:     -9.33934  21.41544   0.00000  1       13
siesta:     -7.01096  22.75985   0.00000  1       14
siesta:     -7.01096  25.44831   0.00000  1       15
siesta:    -11.66772  22.75985   0.00000  1       16
siesta:    -11.66772  25.44831   0.00000  1       17
siesta:     -9.33934  26.79272   0.00000  1       18
siesta:     -9.33934  29.48119   0.00000  1       19
siesta:     -0.02582  37.54693   0.00000  1       20
siesta:     -0.02582  42.92421   0.00000  1       21
siesta:     -0.02582   2.59549   0.00000  2       22
siesta:      4.63094  34.85847   0.00000  2       23
siesta:      4.63094  37.54693   0.00000  2       24
siesta:      6.95932  30.82560   0.00000  2       25
siesta:      6.95932  33.51406   0.00000  2       26
siesta:      9.28770  26.79272   0.00000  2       27
siesta:      9.28770  29.48119   0.00000  2       28
siesta:     -4.68258  34.85847   0.00000  2       29
siesta:     -4.68258  37.54693   0.00000  2       30
siesta:      4.63094  10.66124   0.00000  2       31
siesta:      4.63094  13.34970   0.00000  2       32
siesta:      6.95932  14.69411   0.00000  2       33
siesta:      6.95932  17.38257   0.00000  2       34
siesta:      9.28770  18.72698   0.00000  2       35
siesta:      9.28770  21.41544   0.00000  2       36
siesta:     11.61608  22.75985   0.00000  2       37
siesta:     11.61608  25.44831   0.00000  2       38
siesta:     -0.02582  13.34970   0.00000  2       39
siesta:      2.30256  14.69411   0.00000  2       40
siesta:      2.30256  17.38257   0.00000  2       41
siesta:      4.63094  18.72698   0.00000  2       42
siesta:      4.63094  21.41544   0.00000  2       43
siesta:      6.95932  22.75985   0.00000  2       44
siesta:      6.95932  25.44831   0.00000  2       45
siesta:     -4.68258  10.66124   0.00000  2       46
siesta:     -4.68258  13.34970   0.00000  2       47
siesta:     -2.35420  14.69411   0.00000  2       48
siesta:     -2.35420  17.38257   0.00000  2       49
siesta:     -0.02582  18.72698   0.00000  2       50
siesta:     -0.02582  21.41544   0.00000  2       51
siesta:      2.30256  22.75985   0.00000  2       52
siesta:      2.30256  25.44831   0.00000  2       53
siesta:     -7.01096  14.69411   0.00000  2       54
siesta:     -7.01096  17.38257   0.00000  2       55
siesta:     -4.68258  18.72698   0.00000  2       56
siesta:     -2.35420  22.75985   0.00000  2       57
siesta:     -2.35420  25.44831   0.00000  2       58
siesta:      4.63094  26.79272   0.00000  2       59
siesta:      4.63094  29.48119   0.00000  2       60
siesta:     -0.02582  26.79272   0.00000  2       61
siesta:     -0.02582  29.48119   0.00000  2       62
siesta:     -4.68258  26.79272   0.00000  2       63
siesta:     -4.68258  29.48119   0.00000  2       64
siesta:      2.30256  30.82560   0.00000  2       65
siesta:      2.30256  33.51406   0.00000  2       66
siesta:     -2.35420  30.82560   0.00000  2       67
siesta:     -2.35420  33.51406   0.00000  2       68
siesta:     -7.01096  30.82560   0.00000  2       69
siesta:     -7.01096  33.51406   0.00000  2       70
siesta:     -0.02582  34.85847   0.00000  2       71
siesta:     -0.02582  45.61267   0.00000  2       72

siesta: System type = slab      

initatomlists: Number of atoms, orbitals, and projectors:     72   936  1152

siesta: ******************** Simulation parameters ****************************
siesta:
siesta: The following are some of the parameters of the simulation.
siesta: A complete list of the parameters used, including default values,
siesta: can be found in file out.fdf
siesta:
redata: Non-Collinear-spin run           =     F
redata: SpinPolarized (Up/Down) run      =     F
redata: Number of spin components        =     1
redata: Long output                      =     F
redata: Number of Atomic Species         =        2
redata: Charge density info will appear in .RHO file
redata: Write Mulliken Pop.              =     NO
redata: Mesh Cutoff                      =   200.0000  Ry
redata: Net charge of the system         =     0.0000 |e|
redata: Max. number of SCF Iter          =      500
redata: SCF convergence failure will abort job
redata: Performing Pulay mixing using    =    10 iterations
redata: Mix DM in first SCF step ?       =     F
redata: Write Pulay info on disk?        =     F
redata: Discard 1st Pulay DM after  kick =     F
redata: New DM Mixing Weight             =     0.0500
redata: New DM Occupancy tolerance       = 0.000000000001
redata: No kicks to SCF
redata: DM Mixing Weight for Kicks       =     0.5000
redata: DM Tolerance for SCF             =     0.000100
redata: Require Energy convergence for SCF =     F
redata: DM Energy tolerance for SCF      =     0.000100 eV
redata: Require Harris convergence for SCF =     F
redata: DM Harris energy tolerance for SCF =     0.000100 eV
redata: Using Saved Data (generic)   =     F
redata: Use continuation files for DM    =     T
redata: Neglect nonoverlap interactions  =     F
redata: Method of Calculation            =     Diagonalization
redata: Divide and Conquer               =     T
redata: Electronic Temperature           =     0.0019  Ry
redata: Fix the spin of the system       =     F
redata: Dynamics option                  =     Verlet MD run
redata: Initial MD time step             =        1
redata:   Final MD time step             =        1
redata: Length of MD time step           =     1.0000  fs
redata: Initial Temperature of MD run    =     0.0000  K
redata: Perform a MD quench              =     F
redata: ***********************************************************************
Total number of electrons:   267.000000
Total ionic charge:   267.000000

* ProcessorY, Blocksize:    2  24

k-point displ. along   1 input, could be:     0.50    0.00
k-point displ. along   2 input, could be:     0.50    0.00
 Kpoints in:          231 . Kpoints trimmed:          231

siesta: k-grid: Number of k-points =   231
siesta: k-grid: Cutoff (effective) =     5.000 Ang
siesta: k-grid: Supercell and displacements
siesta: k-grid:   21   0   0      0.500
siesta: k-grid:    0  21   0      0.500
siesta: k-grid:    0   0   1      0.000
Naive supercell factors:     2    2    2

superc: Internal auxiliary supercell:     2 x     2 x     2  =       8
superc: Number of atoms, orbitals, and projectors:    576   7488   9216

* Maximum dynamic memory allocated =     4 MB

siesta:                 ==============================
                            Begin MD step =      1
                        ==============================

superc: Internal auxiliary supercell:     2 x     2 x     2  =       8
superc: Number of atoms, orbitals, and projectors:    576   7488   9216

outcell: Unit cell vectors (Ang):
       12.804619    7.392750    0.000000
        0.000000   14.785500    0.000000
        0.000000    0.000000   10.000000

outcell: Cell vector modules (Ang)   :   14.785500   14.785500   10.000000
outcell: Cell angles (23,13,12) (deg):     90.0000     90.0000     60.0000
outcell: Cell volume (Ang**3)        :   1893.2269
New_DM. Step:     1
Initializing Density Matrix...

InitMesh: MESH =   120 x   120 x    90 =     1296000
InitMesh: Mesh cutoff (required, used) =   200.000   223.865 Ry

* Maximum dynamic memory allocated =   234 MB

stepf: Fermi-Dirac step function

siesta: Program's energy decomposition (eV):
siesta: Ebs     =     -5469.742456
siesta: Eions   =     15713.820136
siesta: Ena     =      4225.691071
siesta: Ekin    =      5270.679987
siesta: Enl     =       829.021285
siesta: DEna    =        -0.000008
siesta: DUscf   =         0.000000
siesta: DUext   =         0.000000
siesta: Exc     =     -4186.036581
siesta: eta*DQ  =         0.000000
siesta: Emadel  =         0.000000
siesta: Emeta   =         0.000000
siesta: Emolmec =         0.000000
siesta: Ekinion =         0.000000
siesta: Eharris =     -9430.085720
siesta: Etot    =     -9574.464382
siesta: FreeEng =     -9574.464382

siesta: iscf   Eharris(eV)      E_KS(eV)   FreeEng(eV)   dDmax  Ef(eV)
siesta:    1    -9430.0857    -9574.4644    -9574.4644  7.4484 -8.2116
timer: Routine,Calls,Time,% = IterSCF        1    3508.465  99.61
elaps: Routine,Calls,Wall,% = IterSCF        1     439.468  99.60
siesta:    2   -14547.7982    -8498.3802    -8498.4437 11.6269 -6.7761
siesta:    3    -9651.6151    -9337.7825    -9337.8154  1.7096 -4.8814
siesta:    4    -9489.2144    -9323.0614    -9323.1043  1.7088 -4.6513
siesta:    5    -9413.7586    -9305.5079    -9305.5772  1.5285 -4.6909
siesta:    6    -9404.3080    -9284.9976    -9285.0333  1.5486 -4.5338
siesta:    7    -9285.2353    -9220.0686    -9220.1079  1.1318 -4.5344
siesta:    8    -9281.2415    -9219.0685    -9219.1153  0.7112 -4.6946
siesta:    9    -9280.3170    -9219.2361    -9219.3142  0.9918 -4.5228
siesta:   10    -9274.8498    -9221.2824    -9221.3403  1.0019 -4.7472
siesta:   11    -9271.3777    -9224.4871    -9224.5438  0.6643 -4.7950
siesta:   12    -9275.1703    -9232.6678    -9232.7478  0.4678 -4.5299
siesta:   13    -9272.3372    -9235.0688    -9235.1201  0.3901 -4.6087
siesta:   14    -9269.5847    -9241.0632    -9241.1273  0.5448 -4.6835
siesta:   15    -9270.7162    -9251.5418    -9251.5814  0.5650 -4.6574
siesta:   16    -9269.7923    -9258.8788    -9258.9267  0.5425 -4.7730
siesta:   17    -9268.9541    -9261.1662    -9261.1944  0.5060 -4.8532
siesta:   18    -9268.4481    -9261.6513    -9261.6962  0.4103 -4.8802
siesta:   19    -9268.0214    -9265.6299    -9265.6842  0.4293 -4.9849
siesta:   20    -9267.9584    -9265.7298    -9265.7927  0.3931 -4.9615
siesta:   21    -9267.9126    -9264.4029    -9264.4838  0.1438 -4.9163
siesta:   22    -9268.0928    -9264.7529    -9264.8328  0.4725 -4.8223
siesta:   23    -9267.8847    -9265.3546    -9265.4355  0.3672 -4.8473
siesta:   24    -9267.7646    -9267.0921    -9267.1709  0.2580 -4.9065
siesta:   25    -9267.6915    -9267.5244    -9267.5930  0.2214 -4.9179
siesta:   26    -9267.6450    -9267.1254    -9267.2151  0.0939 -4.9165
siesta:   27    -9267.6251    -9267.3983    -9267.4822  0.1510 -4.9101
siesta:   28    -9267.5584    -9268.6180    -9268.7028  0.0554 -4.9176
siesta:   29    -9267.5337    -9268.9214    -9269.0137  0.0629 -4.9085
siesta:   30    -9267.5259    -9269.5124    -9269.6033  0.1133 -4.9146
siesta:   31    -9267.5226    -9269.1813    -9269.2773  0.0398 -4.9077
siesta:   32    -9267.5169    -9268.9390    -9269.0277  0.0390 -4.9155
siesta:   33    -9267.5146    -9268.2464    -9268.3377  0.0521 -4.9111
siesta:   34    -9267.5090    -9267.6983    -9267.7882  0.0224 -4.9045
siesta:   35    -9267.5088    -9267.4686    -9267.5591  0.0193 -4.9059
siesta:   36    -9267.5095    -9267.3484    -9267.4385  0.0202 -4.9111
siesta:   37    -9267.5090    -9267.4150    -9267.5044  0.0286 -4.9137
siesta:   38    -9267.5095    -9267.2974    -9267.3872  0.0213 -4.9113
siesta:   39    -9267.5091    -9267.3730    -9267.4625  0.0068 -4.9105
siesta:   40    -9267.5080    -9267.4223    -9267.5118  0.0083 -4.9081
siesta:   41    -9267.5077    -9267.4573    -9267.5474  0.0017 -4.9102
siesta:   42    -9267.5078    -9267.4719    -9267.5617  0.0016 -4.9107
siesta:   43    -9267.5079    -9267.4797    -9267.5694  0.0011 -4.9109
siesta:   44    -9267.5079    -9267.4866    -9267.5761  0.0009 -4.9107
siesta:   45    -9267.5077    -9267.4863    -9267.5758  0.0018 -4.9100
siesta:   46    -9267.5078    -9267.4852    -9267.5748  0.0009 -4.9098
siesta:   47    -9267.5077    -9267.4937    -9267.5833  0.0004 -4.9099
siesta:   48    -9267.5077    -9267.5043    -9267.5940  0.0004 -4.9098
siesta:   49    -9267.5077    -9267.5092    -9267.5989  0.0002 -4.9098
siesta:   50    -9267.5077    -9267.5104    -9267.6001  0.0003 -4.9099
siesta:   51    -9267.5077    -9267.5101    -9267.5997  0.0002 -4.9099
siesta:   52    -9267.5077    -9267.5090    -9267.5986  0.0001 -4.9099

siesta: E_KS(eV) =            -9267.5082

siesta: E_KS - E_eggbox =     -9267.5082

siesta: Atomic forces (eV/Ang):
----------------------------------------
   Tot   -0.006499   -0.025771    0.000000
----------------------------------------
   Max  571.661598
   Res  137.204238    sqrt( Sum f_i^2 / 3N )
----------------------------------------
   Max  571.661598    constrained

Stress-tensor-Voigt (kbar):     -626.84    -2434.79       -0.62       -1.50        0.00        0.00
(Free)E + p*V (eV/cell)    -8061.4300
Target enthalpy (eV/cell)    -9267.5979

siesta: Stress tensor (static) (eV/Ang**3):
        -0.391242   -0.000937    0.000000
        -0.000937   -1.519657    0.000000
         0.000000    0.000000   -0.000390

siesta: Pressure (static):       1020.75182322  kBar

siesta: Stress tensor (total) (eV/Ang**3):
        -0.391242   -0.000937    0.000000
        -0.000937   -1.519657    0.000000
         0.000000    0.000000   -0.000390

siesta: Pressure (total):       1020.75182322  kBar

siesta: Temp_ion =       0.000 K

* Maximum dynamic memory allocated =   252 MB
Computing bands...

siesta: Program's energy decomposition (eV):
siesta: Ebs     =     -4154.288729
siesta: Eions   =     15713.820136
siesta: Ena     =      4225.691071
siesta: Ekin    =      8000.434672
siesta: Enl     =      -822.337698
siesta: DEna    =      -707.559478
siesta: DUscf   =        92.154498
siesta: DUext   =         0.000000
siesta: Exc     =     -4342.071149
siesta: eta*DQ  =         0.000000
siesta: Emadel  =         0.000000
siesta: Emeta   =         0.000000
siesta: Emolmec =         0.000000
siesta: Ekinion =         0.000000
siesta: Eharris =     -9267.507750
siesta: Etot    =     -9267.508220
siesta: FreeEng =     -9267.597866

siesta: Final energy (eV):
siesta:  Band Struct. =   -4154.288729
siesta:       Kinetic =    8000.434672
siesta:       Hartree =   25613.585461
siesta:    Ext. field =       0.000000
siesta:   Exch.-corr. =   -4342.071149
siesta:  Ion-electron =  -58993.655443
siesta:       Ion-ion =   20454.198239
siesta:       Ekinion =       0.000000
siesta:         Total =   -9267.508220

siesta: Atomic forces (eV/Ang):
siesta:      1    0.280710 -102.977587    0.000000
siesta:      2   -3.627525   99.968848    0.000000
siesta:      3    0.980432 -400.143636    0.000000
siesta:      4    3.535134   99.932089    0.000000
siesta:      5   -1.099294 -400.174799    0.000000
siesta:      6   -1.374093  399.890041    0.000000
siesta:      7    3.538164  -99.919304    0.000000
siesta:      8    0.811803  400.132103    0.000000
siesta:      9   -3.570424 -100.010657    0.000000
siesta:     10    0.025877  299.054835    0.000000
siesta:     11    3.778468   -1.325650    0.000000
siesta:     12   -0.048781   -4.583259    0.000000
siesta:     13   -4.512643   -0.805046    0.000000
siesta:     14   -1.064992   -1.746887    0.000000
siesta:     15    5.463897    3.959505    0.000000
siesta:     16   -6.004958   -2.703039    0.000000
siesta:     17   -6.148910    2.888344    0.000000
siesta:     18   -5.288204    0.358142    0.000000
siesta:     19    0.151890    4.497567    0.000000
siesta:     20    0.015165 -299.044274    0.000000
siesta:     21   -0.771727  103.382596    0.000000
siesta:     22    0.144290  550.813393    0.000000
siesta:     23   24.797151    1.456601    0.000000
siesta:     24   20.664106 -549.543184    0.000000
siesta:     25    1.616441   -0.209949    0.000000
siesta:     26   -1.537623    3.014608    0.000000
siesta:     27    1.982000    1.761034    0.000000
siesta:     28   -0.522831    0.826070    0.000000
siesta:     29  -24.136836    2.344128    0.000000
siesta:     30  -20.670381 -549.717506    0.000000
siesta:     31   20.868783  549.578388    0.000000
siesta:     32   24.729021   -1.682864    0.000000
siesta:     33   -1.596511   -2.940424    0.000000
siesta:     34    1.771804    0.076225    0.000000
siesta:     35   -0.580583   -0.645696    0.000000
siesta:     36    2.072566   -1.810497    0.000000
siesta:     37   -0.264604    6.471146    0.000000
siesta:     38   -0.236474   -6.495459    0.000000
siesta:     39    0.478777 -126.414564    0.000000
siesta:     40   31.161936  410.457953    0.000000
siesta:     41   18.960233   -4.404645    0.000000
siesta:     42   -0.974111    2.191696    0.000000
siesta:     43    0.732672   -0.596184    0.000000
siesta:     44   -0.428778    0.482812    0.000000
siesta:     45   -0.378312   -0.526874    0.000000
siesta:     46  -20.845294  549.830334    0.000000
siesta:     47  -24.156508   -2.540089    0.000000
siesta:     48  -30.824144  411.245140    0.000000
siesta:     49  -19.947270   -4.267044    0.000000
siesta:     50   -0.622146  571.661598    0.000000
siesta:     51   -0.132625    2.451357    0.000000
siesta:     52   -0.592489    0.137859    0.000000
siesta:     53   -0.483511   -0.261090    0.000000
siesta:     54    1.174457   -1.905742    0.000000
siesta:     55    0.657645   -4.085575    0.000000
siesta:     56    1.183206   -1.395274    0.000000
siesta:     57    4.162920    0.394216    0.000000
siesta:     58    2.091573    1.351203    0.000000
siesta:     59    0.539493    0.465949    0.000000
siesta:     60   -1.104629   -2.070323    0.000000
siesta:     61   -0.459008   -1.891498    0.000000
siesta:     62   -0.152461 -570.992056    0.000000
siesta:     63    1.844777    1.481606    0.000000
siesta:     64    1.540652   -2.408027    0.000000
siesta:     65   19.191176    4.259119    0.000000
siesta:     66   31.391636 -410.545382    0.000000
siesta:     67  -19.632470    4.175174    0.000000
siesta:     68  -31.334130 -411.080051    0.000000
siesta:     69    0.520590    3.632110    0.000000
siesta:     70    1.332182    2.075920    0.000000
siesta:     71    0.132443  126.342933    0.000000
siesta:     72    0.794714 -551.204279    0.000000
siesta: ----------------------------------------
siesta:    Tot   -0.006499   -0.025771    0.000000

siesta: Stress tensor (static) (eV/Ang**3):
siesta:    -0.391242   -0.000937    0.000000
siesta:    -0.000937   -1.519657    0.000000
siesta:     0.000000    0.000000   -0.000390

siesta: Cell volume =       1893.226884 Ang**3

siesta: Pressure (static):
siesta:                Solid            Molecule  Units
siesta:           0.00693879          0.10486944  Ry/Bohr**3
siesta:           0.63709629          9.62875538  eV/Ang**3
siesta:        1020.75182322      15427.13362753  kBar
(Free)E+ p_basis*V_orbitals  =       -9230.225227
(Free)Eharris+ p_basis*V_orbitals  =       -9230.223985

siesta: Electric dipole (a.u.)  =    0.000000    0.000000    0.000000
siesta: Electric dipole (Debye) =    0.000000    0.000000    0.000000

* Maximum dynamic memory allocated : Node    0 =   252 MB
* Maximum dynamic memory allocated : Node    1 =    88 MB
* Maximum dynamic memory allocated : Node    2 =    91 MB
* Maximum dynamic memory allocated : Node    3 =   238 MB
* Maximum dynamic memory allocated : Node    4 =   222 MB
* Maximum dynamic memory allocated : Node    5 =    81 MB
* Maximum dynamic memory allocated : Node    6 =    84 MB
* Maximum dynamic memory allocated : Node    7 =   204 MB

* Maximum memory occured during matrixMtoO                    

timer: CPU execution times:
timer:  Routine       Calls   Time/call    Tot.time        %
timer:  siesta            1  178064.929  178064.929   100.00
timer:  Setup             1       5.707       5.707     0.00
timer:  bands             3     244.237     732.712     0.41
timer:  writewave         1       0.045       0.045     0.00
timer:  KSV_init          1       0.006       0.006     0.00
timer:  IterMD            1  177321.255  177321.255    99.58
timer:  hsparse           1       0.517       0.517     0.00
timer:  overlap           1       7.201       7.201     0.00
timer:  IterSCF          52    3405.730  177097.984    99.46
timer:  kinefsm           2       3.750       7.501     0.00
timer:  nlefsm            2      20.343      40.686     0.02
timer:  DHSCF            53     114.190    6052.048     3.40
timer:  DHSCF1            1       0.991       0.991     0.00
timer:  DHSCF2            1      43.567      43.567     0.02
timer:  REORD           426       0.005       2.128     0.00
timer:  POISON           54       0.882      47.639     0.03
timer:  DHSCF3           53     112.547    5965.002     3.35
timer:  rhoofd           53      24.198    1282.508     0.72
timer:  cellXC           53       3.280     173.854     0.10
timer:  vmat             53      52.894    2803.365     1.57
timer:  MolMec            2       0.000       0.000     0.00
timer:  diagon           52    3290.467  171104.304    96.09
timer:  c-eigval      12133       6.040   73282.202    41.15
timer:  c-buildHS     12133       0.053     646.009     0.36
timer:  cdiag         24145       6.175  149088.754    83.73
timer:  cdiag1        24145       0.384    9268.158     5.20
timer:  cdiag2        24145       1.767   42669.994    23.96
timer:  cdiag3        24145       3.739   90274.655    50.70
timer:  cdiag4        24145       0.157    3789.015     2.13
timer:  c-eigvec      12012       6.410   76996.503    43.24
timer:  c-buildD      12012       1.790   21496.669    12.07
timer:  DHSCF4            1      41.422      41.422     0.02
timer:  dfscf             1      38.617      38.617     0.02
timer:  overfsm           1       0.453       0.453     0.00
timer:  optical           1       4.623       4.623     0.00
  

elaps: ELAPSED times:
elaps:  Routine       Calls   Time/call    Tot.time        %
elaps:  siesta            1   22300.476   22300.476   100.00
elaps:  Setup             1       0.766       0.766     0.00
elaps:  bands             3      30.606      91.818     0.41
elaps:  writewave         1       0.006       0.006     0.00
elaps:  KSV_init          1       0.001       0.001     0.00
elaps:  IterMD            1   22207.284   22207.284    99.58
elaps:  hsparse           1       0.066       0.066     0.00
elaps:  overlap           1       0.906       0.906     0.00
elaps:  IterSCF          52     426.528   22179.459    99.46
elaps:  kinefsm           2       0.471       0.942     0.00
elaps:  nlefsm            2       2.685       5.371     0.02
elaps:  DHSCF            53      14.406     763.525     3.42
elaps:  DHSCF1            1       0.126       0.126     0.00
elaps:  DHSCF2            1       5.455       5.455     0.02
elaps:  REORD           426       0.001       0.286     0.00
elaps:  POISON           54       0.111       6.016     0.03
elaps:  DHSCF3           53      14.095     747.031     3.35
elaps:  rhoofd           53       6.926     367.075     1.65
elaps:  cellXC           53       0.410      21.752     0.10
elaps:  vmat             53       6.624     351.079     1.57
elaps:  MolMec            2       0.000       0.000     0.00
elaps:  diagon           52     412.088   21428.555    96.09
elaps:  c-eigval      12133       0.756    9177.289    41.15
elaps:  c-buildHS     12133       0.007      88.042     0.39
elaps:  cdiag         24145       0.770   18593.048    83.38
elaps:  cdiag1        24145       0.048    1155.252     5.18
elaps:  cdiag2        24145       0.221    5344.927    23.97
elaps:  cdiag3        24145       0.469   11320.610    50.76
elaps:  cdiag4        24145       0.020     473.842     2.12
elaps:  c-eigvec      12012       0.797    9574.053    42.93
elaps:  c-buildD      12012       0.230    2760.626    12.38
elaps:  DHSCF4            1      10.778      10.778     0.05
elaps:  dfscf             1      10.209      10.209     0.05
elaps:  overfsm           1       0.058       0.058     0.00
elaps:  optical           1       0.001       0.001     0.00
  
>> End of run:  28-APR-2016   5:51:51
