Siesta Version:                                        siesta-3.2-pl-3
Architecture  : x86_64-unknown-linux-gnu--unknown
Compiler flags: mpiifort -g -O2 -fPIC -xSSE4.1 -fp-model source -shared-intel 
PARALLEL version

* Running on    8 nodes in parallel
>> Start of run:  24-APR-2016  18:15:14

                           ***********************       
                           *  WELCOME TO SIESTA  *       
                           ***********************       

reinit: Reading from standard input
************************** Dump of input data file ****************************
#(1) General system descriptors
SystemName            GRP_doping    # Descriptive name of the system
SystemLabel           GRP_doping    # Short name for naming files
%include STRUCT.fdf
%include KPT.fdf
%include BASIS.fdf
#%include TS.fdf # for transiesta calculation
#(4) DFT, Grid, SCF
XC.functional         GGA           # LDA or GGA (default = LDA)
XC.authors            PBE           # CA (Ceperley-Aldr) = PZ
                                    #    (Perdew-Zunger) - LDA - Default
                                    # PW92 (Perdew-Wang-92) - LDA
                                    # PBE (Perdew-Burke-Ernzerhof) - GGA
MeshCutoff            200.000000    Ry      # Default: 50.0 Ry ~ 0.444 Bohr
                                    #         100.0 Ry ~ 0.314 Bohr
MaxSCFIterations      500           # Default: 50
DM.MixingWeight       0.05          # Default: 0.25
DM.NumberPulay        10            # Default: 0
DM.PulayOnFile        F             # SystemLabel.P1, SystemLabel.P2
DM.Tolerance          1.d-4         # Default: 1.d-4
DM.UseSaveDM          .true.        # because of the bug
SCFMustConverge       .true.
NeglNonOverlapInt     F             # Default: F
#(5) Eigenvalue problem: order-N or diagonalization
SolutionMethod        Diagon        # or Transiesta
ElectronicTemperature 300.0 K       # Default: 300.0 K
#(6) Molecular dynamics and relaxations
#MD.TypeOfRun          CG            # Type of dynamics:
#MD.VariableCell       F
#MD.NumCGsteps         0           # 0 for single-point / 100 for gopt
#MD.MaxCGDispl         0.2 Bohr      # Default: 0.2 Bohr
#MD.MaxForceTol        0.02 eV/Ang   # Default: 0.04 eV/Ang
#MD.MaxStressTol       1.0 GPa       # Default: 1.0 GPa
# Geometry Constraints
#%block GeometryConstraints
#	position from 1 to 44
#%endblock GeometryConstraints
BandLinesScale   pi/a
%block BandLines
 1   0.00000000  0.00000000  0.00000000
50   0.00000000  0.07809418  0.00000000
50   0.04509075  0.07809242  0.00000000
20   0.00000000  0.00000000  0.00000000
%endblock BandLines
************************** End of input data file *****************************

reinit: -----------------------------------------------------------------------
reinit: System Name: GRP_doping
reinit: -----------------------------------------------------------------------
reinit: System Label: GRP_doping                                                  
reinit: -----------------------------------------------------------------------

initatom: Reading input for the pseudopotentials and atomic orbitals ----------
 Species number:            1  Label: B Atomic number:           5
 Species number:            2  Label: C Atomic number:           6
Ground state valence configuration:   2s02  2p01
Reading pseudopotential information in formatted form from B.psf

Valence configuration for pseudopotential generation:
2s( 2.00) rc: 1.74
2p( 1.00) rc: 1.74
3d( 0.00) rc: 1.74
4f( 0.00) rc: 1.74
Ground state valence configuration:   2s02  2p02
Reading pseudopotential information in formatted form from C.psf

Valence configuration for pseudopotential generation:
2s( 2.00) rc: 1.54
2p( 2.00) rc: 1.54
3d( 0.00) rc: 1.54
4f( 0.00) rc: 1.54
For B, standard SIESTA heuristics set lmxkb to 3
 (one more than the basis l, including polarization orbitals).
Use PS.lmax or PS.KBprojectors blocks to override.
For C, standard SIESTA heuristics set lmxkb to 3
 (one more than the basis l, including polarization orbitals).
Use PS.lmax or PS.KBprojectors blocks to override.

<basis_specs>
===============================================================================
B                    Z=   5    Mass=  10.810        Charge= 0.17977+309
Lmxo=1 Lmxkb= 3    BasisType=split      Semic=F
L=0  Nsemic=0  Cnfigmx=2
          n=1  nzeta=2  polorb=0
            splnorm:   0.15000    
               vcte:    0.0000    
               rinn:    0.0000    
                rcs:    0.0000      0.0000    
            lambdas:    1.0000      1.0000    
L=1  Nsemic=0  Cnfigmx=2
          n=1  nzeta=2  polorb=1
            splnorm:   0.15000    
               vcte:    0.0000    
               rinn:    0.0000    
                rcs:    0.0000      0.0000    
            lambdas:    1.0000      1.0000    
-------------------------------------------------------------------------------
L=0  Nkbl=1  erefs: 0.17977+309
L=1  Nkbl=1  erefs: 0.17977+309
L=2  Nkbl=1  erefs: 0.17977+309
L=3  Nkbl=1  erefs: 0.17977+309
===============================================================================
</basis_specs>

atom: Called for B                     (Z =   5)

read_vps: Pseudopotential generation method:
read_vps: ATM3      Troullier-Martins                       
Total valence charge:    3.00000

read_vps: Pseudopotential includes a core correction:
read_vps: Pseudo-core for xc-correction

xc_check: Exchange-correlation functional:
xc_check: GGA Perdew, Burke & Ernzerhof 1996
V l=0 = -2*Zval/r beyond r=  1.7165
V l=1 = -2*Zval/r beyond r=  1.7165
V l=2 = -2*Zval/r beyond r=  1.7165
V l=3 = -2*Zval/r beyond r=  1.6951
All V_l potentials equal beyond r=  1.7165
This should be close to max(r_c) in ps generation
All pots = -2*Zval/r beyond r=  1.7165

VLOCAL1: 99.0% of the norm of Vloc inside     14.733 Ry
VLOCAL1: 99.9% of the norm of Vloc inside     33.577 Ry
atom: Maximum radius for 4*pi*r*r*local-pseudopot. charge    2.04484
atom: Maximum radius for r*vlocal+2*Zval:    1.75994
GHOST: No ghost state for L =  0
GHOST: No ghost state for L =  1
GHOST: No ghost state for L =  2
GHOST: No ghost state for L =  3

KBgen: Kleinman-Bylander projectors: 
   l= 0   rc=  1.897051   el= -0.693730   Ekb=  4.595746   kbcos=  0.286105
   l= 1   rc=  1.920920   el= -0.265236   Ekb= -2.350715   kbcos= -0.315747
   l= 2   rc=  2.044840   el=  0.002055   Ekb= -0.690767   kbcos= -0.013822
   l= 3   rc=  2.149707   el=  0.003188   Ekb= -0.315358   kbcos= -0.002055

KBgen: Total number of  Kleinman-Bylander projectors:   16
atom: -------------------------------------------------------------------------

atom: SANKEY-TYPE ORBITALS:
atom: Selected multiple-zeta basis: split     

SPLIT: Orbitals with angular momentum L= 0

SPLIT: Basis orbitals for state 2s

SPLIT: PAO cut-off radius determined from an
SPLIT: energy shift=  0.007350 Ry

   izeta = 1
                 lambda =    1.000000
                     rc =    5.422032
                 energy =   -0.686029
                kinetic =    0.576707
    potential(screened) =   -1.262736
       potential(ionic) =   -3.271094

   izeta = 2
                 rmatch =    4.222573
              splitnorm =    0.150000
                 energy =   -0.602132
                kinetic =    0.858975
    potential(screened) =   -1.461107
       potential(ionic) =   -3.582536

SPLIT: Orbitals with angular momentum L= 1

SPLIT: Basis orbitals for state 2p

SPLIT: PAO cut-off radius determined from an
SPLIT: energy shift=  0.007350 Ry

   izeta = 1
                 lambda =    1.000000
                     rc =    6.790259
                 energy =   -0.258578
                kinetic =    1.481412
    potential(screened) =   -1.739989
       potential(ionic) =   -3.657461

   izeta = 2
                 rmatch =    4.608740
              splitnorm =    0.150000
                 energy =   -0.173757
                kinetic =    2.186690
    potential(screened) =   -2.360447
       potential(ionic) =   -4.464260

POLgen: Perturbative polarization orbital with L=  2

POLgen: Polarization orbital for state 2p

   izeta = 1
                     rc =    6.790259
                 energy =    0.684082
                kinetic =    1.471481
    potential(screened) =   -0.787399
       potential(ionic) =   -2.406985
atom: Total number of Sankey-type orbitals: 13

atm_pop: Valence configuration (for local Pseudopot. screening):
 2s( 2.00)                                                            
 2p( 1.00)                                                            
Vna: chval, zval:    3.00000   3.00000

Vna:  Cut-off radius for the neutral-atom potential:   6.790259
comcore: Pseudo-core radius Rcore=  2.122997

atom: _________________________________________________________________________

<basis_specs>
===============================================================================
C                    Z=   6    Mass=  12.010        Charge= 0.17977+309
Lmxo=1 Lmxkb= 3    BasisType=split      Semic=F
L=0  Nsemic=0  Cnfigmx=2
          n=1  nzeta=2  polorb=0
            splnorm:   0.15000    
               vcte:    0.0000    
               rinn:    0.0000    
                rcs:    0.0000      0.0000    
            lambdas:    1.0000      1.0000    
L=1  Nsemic=0  Cnfigmx=2
          n=1  nzeta=2  polorb=1
            splnorm:   0.15000    
               vcte:    0.0000    
               rinn:    0.0000    
                rcs:    0.0000      0.0000    
            lambdas:    1.0000      1.0000    
-------------------------------------------------------------------------------
L=0  Nkbl=1  erefs: 0.17977+309
L=1  Nkbl=1  erefs: 0.17977+309
L=2  Nkbl=1  erefs: 0.17977+309
L=3  Nkbl=1  erefs: 0.17977+309
===============================================================================
</basis_specs>

atom: Called for C                     (Z =   6)

read_vps: Pseudopotential generation method:
read_vps: ATM3      Troullier-Martins                       
Total valence charge:    4.00000

read_vps: Pseudopotential includes a core correction:
read_vps: Pseudo-core for xc-correction

xc_check: Exchange-correlation functional:
xc_check: GGA Perdew, Burke & Ernzerhof 1996
V l=0 = -2*Zval/r beyond r=  1.5227
V l=1 = -2*Zval/r beyond r=  1.5227
V l=2 = -2*Zval/r beyond r=  1.5227
V l=3 = -2*Zval/r beyond r=  1.5038
All V_l potentials equal beyond r=  1.5227
This should be close to max(r_c) in ps generation
All pots = -2*Zval/r beyond r=  1.5227

VLOCAL1: 99.0% of the norm of Vloc inside     18.722 Ry
VLOCAL1: 99.9% of the norm of Vloc inside     42.668 Ry
atom: Maximum radius for 4*pi*r*r*local-pseudopot. charge    1.83678
atom: Maximum radius for r*vlocal+2*Zval:    1.58088
GHOST: No ghost state for L =  0
GHOST: No ghost state for L =  1
GHOST: No ghost state for L =  2
GHOST: No ghost state for L =  3

KBgen: Kleinman-Bylander projectors: 
   l= 0   rc=  1.704034   el= -1.009801   Ekb=  5.335044   kbcos=  0.316824
   l= 1   rc=  1.704034   el= -0.388707   Ekb= -3.785862   kbcos= -0.366464
   l= 2   rc=  1.791422   el=  0.001971   Ekb= -0.970471   kbcos= -0.009212
   l= 3   rc=  1.859892   el=  0.003065   Ekb= -0.399525   kbcos= -0.001223

KBgen: Total number of  Kleinman-Bylander projectors:   16
atom: -------------------------------------------------------------------------

atom: SANKEY-TYPE ORBITALS:
atom: Selected multiple-zeta basis: split     

SPLIT: Orbitals with angular momentum L= 0

SPLIT: Basis orbitals for state 2s

SPLIT: PAO cut-off radius determined from an
SPLIT: energy shift=  0.007350 Ry

   izeta = 1
                 lambda =    1.000000
                     rc =    4.632753
                 energy =   -1.002270
                kinetic =    0.855760
    potential(screened) =   -1.858031
       potential(ionic) =   -5.417575

   izeta = 2
                 rmatch =    3.431921
              splitnorm =    0.150000
                 energy =   -0.867111
                kinetic =    1.300804
    potential(screened) =   -2.167915
       potential(ionic) =   -5.962684

SPLIT: Orbitals with angular momentum L= 1

SPLIT: Basis orbitals for state 2p

SPLIT: PAO cut-off radius determined from an
SPLIT: energy shift=  0.007350 Ry

   izeta = 1
                 lambda =    1.000000
                     rc =    5.658549
                 energy =   -0.381140
                kinetic =    2.399701
    potential(screened) =   -2.780841
       potential(ionic) =   -6.206085

   izeta = 2
                 rmatch =    3.653288
              splitnorm =    0.150000
                 energy =   -0.249149
                kinetic =    3.542762
    potential(screened) =   -3.791911
       potential(ionic) =   -7.581078

POLgen: Perturbative polarization orbital with L=  2

POLgen: Polarization orbital for state 2p

   izeta = 1
                     rc =    5.658549
                 energy =    1.109913
                kinetic =    2.304789
    potential(screened) =   -1.194876
       potential(ionic) =   -4.013592
atom: Total number of Sankey-type orbitals: 13

atm_pop: Valence configuration (for local Pseudopot. screening):
 2s( 2.00)                                                            
 2p( 2.00)                                                            
Vna: chval, zval:    4.00000   4.00000

Vna:  Cut-off radius for the neutral-atom potential:   5.658549
comcore: Pseudo-core radius Rcore=  1.791422

atom: _________________________________________________________________________

prinput: Basis input ----------------------------------------------------------

PAO.BasisType split     

%block ChemicalSpeciesLabel
    1    5 B                       # Species index, atomic number, species label
    2    6 C                       # Species index, atomic number, species label
%endblock ChemicalSpeciesLabel

%block PAO.Basis                 # Define Basis set
B                     2                    # Species label, number of l-shells
 n=2   0   2                         # n, l, Nzeta 
   5.422      4.223   
   1.000      1.000   
 n=2   1   2 P   1                   # n, l, Nzeta, Polarization, NzetaPol
   6.790      4.609   
   1.000      1.000   
C                     2                    # Species label, number of l-shells
 n=2   0   2                         # n, l, Nzeta 
   4.633      3.432   
   1.000      1.000   
 n=2   1   2 P   1                   # n, l, Nzeta, Polarization, NzetaPol
   5.659      3.653   
   1.000      1.000   
%endblock PAO.Basis

prinput: ----------------------------------------------------------------------

coor:   Atomic-coordinates input format  =     Fractional

siesta: Atomic coordinates (Bohr) and species
siesta:     -2.35420  38.89134   0.00000  1        1
siesta:     -2.35420  41.57980   0.00000  1        2
siesta:      2.30256  38.89134   0.00000  1        3
siesta:      2.30256  41.57980   0.00000  1        4
siesta:     -4.68258  34.85847   0.00000  1        5
siesta:     -4.68258  37.54693   0.00000  1        6
siesta:     -2.35420  22.75985   0.00000  1        7
siesta:     -9.33934  21.41544   0.00000  1        8
siesta:     -7.01096  22.75985   0.00000  1        9
siesta:     -7.01096  25.44831   0.00000  1       10
siesta:    -11.66772  22.75985   0.00000  1       11
siesta:    -11.66772  25.44831   0.00000  1       12
siesta:     -9.33934  26.79272   0.00000  1       13
siesta:     -9.33934  29.48119   0.00000  1       14
siesta:     -4.68258  26.79272   0.00000  1       15
siesta:     -4.68258  29.48119   0.00000  1       16
siesta:     -2.35420  30.82560   0.00000  1       17
siesta:     -2.35420  33.51406   0.00000  1       18
siesta:     -7.01096  30.82560   0.00000  1       19
siesta:     -7.01096  33.51406   0.00000  1       20
siesta:     -0.02582  34.85847   0.00000  1       21
siesta:     -0.02582  37.54693   0.00000  1       22
siesta:     -0.02582  42.92421   0.00000  1       23
siesta:     -0.02582   2.59549   0.00000  2       24
siesta:     -0.02582   5.28395   0.00000  2       25
siesta:      4.63094  34.85847   0.00000  2       26
siesta:      4.63094  37.54693   0.00000  2       27
siesta:      6.95932  30.82560   0.00000  2       28
siesta:      6.95932  33.51406   0.00000  2       29
siesta:      9.28770  26.79272   0.00000  2       30
siesta:      9.28770  29.48119   0.00000  2       31
siesta:      2.30256   6.62836   0.00000  2       32
siesta:      2.30256   9.31683   0.00000  2       33
siesta:      4.63094  10.66124   0.00000  2       34
siesta:      4.63094  13.34970   0.00000  2       35
siesta:      6.95932  14.69411   0.00000  2       36
siesta:      6.95932  17.38257   0.00000  2       37
siesta:      9.28770  18.72698   0.00000  2       38
siesta:      9.28770  21.41544   0.00000  2       39
siesta:     11.61608  22.75985   0.00000  2       40
siesta:     11.61608  25.44831   0.00000  2       41
siesta:     -2.35420   6.62836   0.00000  2       42
siesta:     -2.35420   9.31683   0.00000  2       43
siesta:     -0.02582  10.66124   0.00000  2       44
siesta:     -0.02582  13.34970   0.00000  2       45
siesta:      2.30256  14.69411   0.00000  2       46
siesta:      2.30256  17.38257   0.00000  2       47
siesta:      4.63094  18.72698   0.00000  2       48
siesta:      4.63094  21.41544   0.00000  2       49
siesta:      6.95932  22.75985   0.00000  2       50
siesta:      6.95932  25.44831   0.00000  2       51
siesta:     -4.68258  10.66124   0.00000  2       52
siesta:     -4.68258  13.34970   0.00000  2       53
siesta:     -2.35420  14.69411   0.00000  2       54
siesta:     -2.35420  17.38257   0.00000  2       55
siesta:     -0.02582  18.72698   0.00000  2       56
siesta:     -0.02582  21.41544   0.00000  2       57
siesta:      2.30256  22.75985   0.00000  2       58
siesta:      2.30256  25.44831   0.00000  2       59
siesta:     -7.01096  14.69411   0.00000  2       60
siesta:     -7.01096  17.38257   0.00000  2       61
siesta:     -4.68258  18.72698   0.00000  2       62
siesta:     -4.68258  21.41544   0.00000  2       63
siesta:     -2.35420  25.44831   0.00000  2       64
siesta:     -9.33934  18.72698   0.00000  2       65
siesta:      4.63094  26.79272   0.00000  2       66
siesta:      4.63094  29.48119   0.00000  2       67
siesta:     -0.02582  26.79272   0.00000  2       68
siesta:     -0.02582  29.48119   0.00000  2       69
siesta:      2.30256  30.82560   0.00000  2       70
siesta:      2.30256  33.51406   0.00000  2       71
siesta:     -0.02582  45.61267   0.00000  2       72

siesta: System type = slab      

initatomlists: Number of atoms, orbitals, and projectors:     72   936  1152

siesta: ******************** Simulation parameters ****************************
siesta:
siesta: The following are some of the parameters of the simulation.
siesta: A complete list of the parameters used, including default values,
siesta: can be found in file out.fdf
siesta:
redata: Non-Collinear-spin run           =     F
redata: SpinPolarized (Up/Down) run      =     F
redata: Number of spin components        =     1
redata: Long output                      =     F
redata: Number of Atomic Species         =        2
redata: Charge density info will appear in .RHO file
redata: Write Mulliken Pop.              =     NO
redata: Mesh Cutoff                      =   200.0000  Ry
redata: Net charge of the system         =     0.0000 |e|
redata: Max. number of SCF Iter          =      500
redata: SCF convergence failure will abort job
redata: Performing Pulay mixing using    =    10 iterations
redata: Mix DM in first SCF step ?       =     F
redata: Write Pulay info on disk?        =     F
redata: Discard 1st Pulay DM after  kick =     F
redata: New DM Mixing Weight             =     0.0500
redata: New DM Occupancy tolerance       = 0.000000000001
redata: No kicks to SCF
redata: DM Mixing Weight for Kicks       =     0.5000
redata: DM Tolerance for SCF             =     0.000100
redata: Require Energy convergence for SCF =     F
redata: DM Energy tolerance for SCF      =     0.000100 eV
redata: Require Harris convergence for SCF =     F
redata: DM Harris energy tolerance for SCF =     0.000100 eV
redata: Using Saved Data (generic)   =     F
redata: Use continuation files for DM    =     T
redata: Neglect nonoverlap interactions  =     F
redata: Method of Calculation            =     Diagonalization
redata: Divide and Conquer               =     T
redata: Electronic Temperature           =     0.0019  Ry
redata: Fix the spin of the system       =     F
redata: Dynamics option                  =     Verlet MD run
redata: Initial MD time step             =        1
redata:   Final MD time step             =        1
redata: Length of MD time step           =     1.0000  fs
redata: Initial Temperature of MD run    =     0.0000  K
redata: Perform a MD quench              =     F
redata: ***********************************************************************
Total number of electrons:   265.000000
Total ionic charge:   265.000000

* ProcessorY, Blocksize:    2  24

k-point displ. along   1 input, could be:     0.50    0.00
k-point displ. along   2 input, could be:     0.50    0.00
 Kpoints in:          231 . Kpoints trimmed:          231

siesta: k-grid: Number of k-points =   231
siesta: k-grid: Cutoff (effective) =     5.000 Ang
siesta: k-grid: Supercell and displacements
siesta: k-grid:   21   0   0      0.500
siesta: k-grid:    0  21   0      0.500
siesta: k-grid:    0   0   1      0.000
Naive supercell factors:     2    2    2

superc: Internal auxiliary supercell:     2 x     2 x     2  =       8
superc: Number of atoms, orbitals, and projectors:    576   7488   9216

* Maximum dynamic memory allocated =     4 MB

siesta:                 ==============================
                            Begin MD step =      1
                        ==============================

superc: Internal auxiliary supercell:     2 x     2 x     2  =       8
superc: Number of atoms, orbitals, and projectors:    576   7488   9216

outcell: Unit cell vectors (Ang):
       12.804619    7.392750    0.000000
        0.000000   14.785500    0.000000
        0.000000    0.000000   10.000000

outcell: Cell vector modules (Ang)   :   14.785500   14.785500   10.000000
outcell: Cell angles (23,13,12) (deg):     90.0000     90.0000     60.0000
outcell: Cell volume (Ang**3)        :   1893.2269
New_DM. Step:     1
Initializing Density Matrix...

InitMesh: MESH =   120 x   120 x    90 =     1296000
InitMesh: Mesh cutoff (required, used) =   200.000   223.865 Ry

* Maximum dynamic memory allocated =   238 MB

stepf: Fermi-Dirac step function

siesta: Program's energy decomposition (eV):
siesta: Ebs     =     -5469.588584
siesta: Eions   =     15457.706713
siesta: Ena     =      4178.808719
siesta: Ekin    =      5165.204314
siesta: Enl     =       845.338559
siesta: DEna    =        -0.000007
siesta: DUscf   =         0.000000
siesta: DUext   =         0.000000
siesta: Exc     =     -4196.669778
siesta: eta*DQ  =         0.000000
siesta: Emadel  =         0.000000
siesta: Emeta   =         0.000000
siesta: Emolmec =         0.000000
siesta: Ekinion =         0.000000
siesta: Eharris =     -9291.854717
siesta: Etot    =     -9465.024906
siesta: FreeEng =     -9465.024906

siesta: iscf   Eharris(eV)      E_KS(eV)   FreeEng(eV)   dDmax  Ef(eV)
siesta:    1    -9291.8547    -9465.0249    -9465.0249  7.5869 -8.4320
timer: Routine,Calls,Time,% = IterSCF        1    3508.911  99.64
elaps: Routine,Calls,Wall,% = IterSCF        1     439.542  99.63
siesta:    2   -15748.5538    -8265.6535    -8265.7094 20.6147 -7.0392
siesta:    3    -9403.0846    -9266.8262    -9266.8807  1.8189 -5.2508
siesta:    4    -9296.5933    -9210.2261    -9210.2791  1.5377 -4.9162
siesta:    5    -9231.6644    -9155.3422    -9155.3847  1.5339 -4.5189
siesta:    6    -9141.6922    -9109.8900    -9109.9070  1.3197 -4.8119
siesta:    7    -9132.1257    -9094.2622    -9094.3009  1.1667 -4.9545
siesta:    8    -9129.6978    -9088.3307    -9088.3572  1.1257 -4.9977
siesta:    9    -9126.7928    -9087.2623    -9087.3069  0.8985 -5.0016
siesta:   10    -9124.5825    -9083.7453    -9083.8177  0.8177 -5.0466
siesta:   11    -9125.8580    -9083.3553    -9083.4416  0.6811 -5.0725
siesta:   12    -9125.5928    -9082.6899    -9082.7652  0.9552 -4.9510
siesta:   13    -9125.0771    -9084.0241    -9084.0714  0.5308 -5.0700
siesta:   14    -9123.0884    -9090.6488    -9090.7143  0.4208 -5.1186
siesta:   15    -9122.8125    -9097.0111    -9097.0782  0.2555 -5.1047
siesta:   16    -9122.7232    -9098.2062    -9098.2784  0.4853 -5.1340
siesta:   17    -9122.1511    -9100.5087    -9100.5619  0.3895 -5.1477
siesta:   18    -9121.5845    -9104.3620    -9104.4282  0.2917 -5.0976
siesta:   19    -9121.4995    -9107.8196    -9107.9078  0.4635 -5.0632
siesta:   20    -9121.3561    -9109.4582    -9109.5020  0.2278 -5.0783
siesta:   21    -9121.3264    -9109.7895    -9109.8678  0.1809 -5.0872
siesta:   22    -9121.2695    -9111.6640    -9111.7434  0.1929 -5.0906
siesta:   23    -9121.1857    -9115.2494    -9115.3344  0.1441 -5.1445
siesta:   24    -9121.1617    -9117.4309    -9117.5121  0.1475 -5.1509
siesta:   25    -9121.1557    -9118.5825    -9118.6690  0.0578 -5.1519
siesta:   26    -9121.1658    -9119.3543    -9119.4379  0.1691 -5.1575
siesta:   27    -9121.1526    -9121.0553    -9121.1411  0.0390 -5.1482
siesta:   28    -9121.1470    -9121.0294    -9121.1139  0.0294 -5.1506
siesta:   29    -9121.1445    -9120.9403    -9121.0259  0.0263 -5.1443
siesta:   30    -9121.1432    -9120.8710    -9120.9566  0.0278 -5.1449
siesta:   31    -9121.1435    -9120.9278    -9121.0132  0.0267 -5.1345
siesta:   32    -9121.1419    -9121.1478    -9121.2329  0.0188 -5.1333
siesta:   33    -9121.1410    -9121.1752    -9121.2600  0.0075 -5.1338
siesta:   34    -9121.1410    -9121.1999    -9121.2851  0.0060 -5.1338
siesta:   35    -9121.1413    -9121.1145    -9121.1996  0.0048 -5.1343
siesta:   36    -9121.1409    -9121.0289    -9121.1136  0.0032 -5.1344
siesta:   37    -9121.1412    -9121.0042    -9121.0893  0.0030 -5.1353
siesta:   38    -9121.1409    -9121.0335    -9121.1182  0.0010 -5.1357
siesta:   39    -9121.1409    -9121.0578    -9121.1428  0.0010 -5.1360
siesta:   40    -9121.1408    -9121.0624    -9121.1474  0.0009 -5.1361
siesta:   41    -9121.1409    -9121.0787    -9121.1637  0.0005 -5.1362
siesta:   42    -9121.1408    -9121.0906    -9121.1757  0.0003 -5.1361
siesta:   43    -9121.1409    -9121.1118    -9121.1969  0.0004 -5.1362
siesta:   44    -9121.1408    -9121.1175    -9121.2025  0.0002 -5.1361
siesta:   45    -9121.1409    -9121.1234    -9121.2085  0.0003 -5.1362
siesta:   46    -9121.1409    -9121.1338    -9121.2188  0.0001 -5.1362

siesta: E_KS(eV) =            -9121.1361

siesta: E_KS - E_eggbox =     -9121.1361

siesta: Atomic forces (eV/Ang):
----------------------------------------
   Tot   -0.123164    0.094098    0.000000
----------------------------------------
   Max  570.715413
   Res  139.110618    sqrt( Sum f_i^2 / 3N )
----------------------------------------
   Max  570.715413    constrained

Stress-tensor-Voigt (kbar):     -702.33    -2540.86       -0.66       -9.02        0.00        0.00
(Free)E + p*V (eV/cell)    -7843.5285
Target enthalpy (eV/cell)    -9121.2211

siesta: Stress tensor (static) (eV/Ang**3):
        -0.438355   -0.005633    0.000000
        -0.005632   -1.585860    0.000000
         0.000000    0.000000   -0.000411

siesta: Pressure (static):       1081.28158089  kBar

siesta: Stress tensor (total) (eV/Ang**3):
        -0.438355   -0.005633    0.000000
        -0.005632   -1.585860    0.000000
         0.000000    0.000000   -0.000411

siesta: Pressure (total):       1081.28158089  kBar

siesta: Temp_ion =       0.000 K

* Maximum dynamic memory allocated =   255 MB
Computing bands...

siesta: Program's energy decomposition (eV):
siesta: Ebs     =     -4092.217926
siesta: Eions   =     15457.706713
siesta: Ena     =      4178.808719
siesta: Ekin    =      7962.161381
siesta: Enl     =      -792.265108
siesta: DEna    =      -751.665856
siesta: DUscf   =       100.536058
siesta: DUext   =         0.000000
siesta: Exc     =     -4361.004536
siesta: eta*DQ  =         0.000000
siesta: Emadel  =         0.000000
siesta: Emeta   =         0.000000
siesta: Emolmec =         0.000000
siesta: Ekinion =         0.000000
siesta: Eharris =     -9121.140851
siesta: Etot    =     -9121.136056
siesta: FreeEng =     -9121.221103

siesta: Final energy (eV):
siesta:  Band Struct. =   -4092.217926
siesta:       Kinetic =    7962.161381
siesta:       Hartree =   25790.631572
siesta:    Ext. field =       0.000000
siesta:   Exch.-corr. =   -4361.004536
siesta:  Ion-electron =  -59273.741788
siesta:       Ion-ion =   20760.817316
siesta:       Ekinion =       0.000000
siesta:         Total =   -9121.136056

siesta: Atomic forces (eV/Ang):
siesta:      1    0.171790  107.051264    0.000000
siesta:      2    2.067846 -396.193009    0.000000
siesta:      3   -4.048260  106.113467    0.000000
siesta:      4   -3.452524 -398.257316    0.000000
siesta:      5  -15.523929    0.498616    0.000000
siesta:      6  -16.373340 -394.502273    0.000000
siesta:      7    1.437314   -1.118695    0.000000
siesta:      8   -4.951023   -6.129131    0.000000
siesta:      9    6.561947   -4.179047    0.000000
siesta:     10   -3.811614    2.321326    0.000000
siesta:     11   -5.977855   -2.700918    0.000000
siesta:     12   -6.099573    4.066293    0.000000
siesta:     13   -3.154176    0.661881    0.000000
siesta:     14   -4.886711    1.739739    0.000000
siesta:     15    5.847859   -3.438206    0.000000
siesta:     16    0.632088    2.236018    0.000000
siesta:     17  -15.386323    1.609014    0.000000
siesta:     18  -17.317897 -398.798105    0.000000
siesta:     19   -2.817993    3.314519    0.000000
siesta:     20   -3.457386    2.655388    0.000000
siesta:     21   -2.061978  107.456034    0.000000
siesta:     22   -4.192431 -387.126040    0.000000
siesta:     23    0.244324  105.397324    0.000000
siesta:     24    7.073810  548.284594    0.000000
siesta:     25  -12.089643 -132.633631    0.000000
siesta:     26   25.851972    5.801243    0.000000
siesta:     27   27.969421 -543.489711    0.000000
siesta:     28    1.754850   -0.064552    0.000000
siesta:     29   -2.161413    2.192734    0.000000
siesta:     30    2.238944    2.100896    0.000000
siesta:     31   -0.873807    0.405081    0.000000
siesta:     32   29.013266  556.238869    0.000000
siesta:     33   -3.197685 -128.742750    0.000000
siesta:     34   35.167485  549.113222    0.000000
siesta:     35   24.358409   -1.510507    0.000000
siesta:     36   -1.853620   -2.914057    0.000000
siesta:     37    1.917278    0.243879    0.000000
siesta:     38   -0.920278   -0.399961    0.000000
siesta:     39    1.708770   -2.019627    0.000000
siesta:     40    0.429343    6.559674    0.000000
siesta:     41   -0.536765   -6.636209    0.000000
siesta:     42  -16.936432  403.262619    0.000000
siesta:     43   -1.050986 -118.521093    0.000000
siesta:     44   -4.006584  405.168143    0.000000
siesta:     45   -0.154794 -125.488287    0.000000
siesta:     46   31.375778  412.617067    0.000000
siesta:     47   19.295407   -3.592329    0.000000
siesta:     48   -1.236190    1.917052    0.000000
siesta:     49    0.577856   -0.204048    0.000000
siesta:     50   -0.235258    0.693908    0.000000
siesta:     51   -0.203119   -0.732384    0.000000
siesta:     52  -31.653037  402.400592    0.000000
siesta:     53  -23.976804    2.853316    0.000000
siesta:     54  -31.750784  409.540672    0.000000
siesta:     55  -19.354860   -4.603318    0.000000
siesta:     56    0.809983  570.715413    0.000000
siesta:     57    2.739720   -0.320980    0.000000
siesta:     58   -0.808897   -0.863057    0.000000
siesta:     59   -0.554741    0.635031    0.000000
siesta:     60    2.469112   -2.517982    0.000000
siesta:     61   -2.914067   -1.853107    0.000000
siesta:     62    1.057365    2.796081    0.000000
siesta:     63   -1.164009   -3.830039    0.000000
siesta:     64    3.914595    3.388442    0.000000
siesta:     65    3.115811   -1.329429    0.000000
siesta:     66    0.536779    0.562260    0.000000
siesta:     67   -0.697321   -2.538351    0.000000
siesta:     68    0.300599   -2.357135    0.000000
siesta:     69   -5.980871 -557.977418    0.000000
siesta:     70   21.772465    8.064175    0.000000
siesta:     71   15.315891 -551.855071    0.000000
siesta:     72   -0.026261 -551.143976    0.000000
siesta: ----------------------------------------
siesta:    Tot   -0.123164    0.094098    0.000000

siesta: Stress tensor (static) (eV/Ang**3):
siesta:    -0.438355   -0.005633    0.000000
siesta:    -0.005632   -1.585860    0.000000
siesta:     0.000000    0.000000   -0.000411

siesta: Cell volume =       1893.226884 Ang**3

siesta: Pressure (static):
siesta:                Solid            Molecule  Units
siesta:           0.00735026          0.10612416  Ry/Bohr**3
siesta:           0.67487559          9.74395962  eV/Ang**3
siesta:        1081.28158089      15611.71317608  kBar
(Free)E+ p_basis*V_orbitals  =       -9083.216558
(Free)Eharris+ p_basis*V_orbitals  =       -9083.223622

siesta: Electric dipole (a.u.)  =    0.000000    0.000000    0.000000
siesta: Electric dipole (Debye) =    0.000000    0.000000    0.000000

* Maximum dynamic memory allocated : Node    0 =   255 MB
* Maximum dynamic memory allocated : Node    1 =    90 MB
* Maximum dynamic memory allocated : Node    2 =    93 MB
* Maximum dynamic memory allocated : Node    3 =   242 MB
* Maximum dynamic memory allocated : Node    4 =   221 MB
* Maximum dynamic memory allocated : Node    5 =    81 MB
* Maximum dynamic memory allocated : Node    6 =    84 MB
* Maximum dynamic memory allocated : Node    7 =   205 MB

* Maximum memory occured during matrixMtoO                    

timer: CPU execution times:
timer:  Routine       Calls   Time/call    Tot.time        %
timer:  siesta            1  161500.983  161500.983   100.00
timer:  Setup             1       4.758       4.758     0.00
timer:  bands             3     244.236     732.708     0.45
timer:  writewave         1       0.048       0.048     0.00
timer:  KSV_init          1       0.005       0.005     0.00
timer:  IterMD            1  160758.321  160758.321    99.54
timer:  hsparse           1       0.516       0.516     0.00
timer:  overlap           1       7.206       7.206     0.00
timer:  IterSCF          46    3489.798  160530.705    99.40
timer:  kinefsm           2       3.748       7.495     0.00
timer:  nlefsm            2      20.681      41.362     0.03
timer:  DHSCF            47     120.778    5676.553     3.51
timer:  DHSCF1            1       0.996       0.996     0.00
timer:  DHSCF2            1      44.519      44.519     0.03
timer:  REORD           378       0.005       1.908     0.00
timer:  POISON           48       0.877      42.073     0.03
timer:  DHSCF3           47     118.895    5588.065     3.46
timer:  rhoofd           47      24.685    1160.180     0.72
timer:  cellXC           47       3.304     155.304     0.10
timer:  vmat             47      57.758    2714.637     1.68
timer:  MolMec            2       0.000       0.000     0.00
timer:  diagon           46    3367.843  154920.782    95.93
timer:  c-eigval      10747       6.044   64958.944    40.22
timer:  c-buildHS     10747       0.054     582.398     0.36
timer:  cdiag         21373       6.193  132356.605    81.95
timer:  cdiag1        21373       0.385    8234.058     5.10
timer:  cdiag2        21373       1.771   37852.326    23.44
timer:  cdiag3        21373       3.740   79939.529    49.50
timer:  cdiag4        21373       0.155    3307.952     2.05
timer:  c-eigvec      10626       6.444   68474.175    42.40
timer:  c-buildD      10626       2.086   22166.331    13.73
timer:  DHSCF4            1      42.021      42.021     0.03
timer:  dfscf             1      39.201      39.201     0.02
timer:  overfsm           1       0.455       0.455     0.00
timer:  optical           1       4.568       4.568     0.00
  

elaps: ELAPSED times:
elaps:  Routine       Calls   Time/call    Tot.time        %
elaps:  siesta            1   20225.944   20225.944   100.00
elaps:  Setup             1       0.629       0.629     0.00
elaps:  bands             3      30.606      91.818     0.45
elaps:  writewave         1       0.006       0.006     0.00
elaps:  KSV_init          1       0.001       0.001     0.00
elaps:  IterMD            1   20132.895   20132.895    99.54
elaps:  hsparse           1       0.068       0.068     0.00
elaps:  overlap           1       0.904       0.904     0.00
elaps:  IterSCF          46     437.055   20104.528    99.40
elaps:  kinefsm           2       0.470       0.941     0.00
elaps:  nlefsm            2       2.580       5.160     0.03
elaps:  DHSCF            47      15.248     716.663     3.54
elaps:  DHSCF1            1       0.127       0.127     0.00
elaps:  DHSCF2            1       5.577       5.577     0.03
elaps:  REORD           378       0.001       0.255     0.00
elaps:  POISON           48       0.110       5.280     0.03
elaps:  DHSCF3           47      14.890     699.840     3.46
elaps:  rhoofd           47       7.110     334.150     1.65
elaps:  cellXC           47       0.413      19.433     0.10
elaps:  vmat             47       7.233     339.973     1.68
elaps:  MolMec            2       0.000       0.000     0.00
elaps:  diagon           46     421.782   19401.961    95.93
elaps:  c-eigval      10747       0.757    8135.008    40.22
elaps:  c-buildHS     10747       0.007      79.942     0.40
elaps:  cdiag         21373       0.769   16426.422    81.21
elaps:  cdiag1        21373       0.048    1033.556     5.11
elaps:  cdiag2        21373       0.222    4741.276    23.44
elaps:  cdiag3        21373       0.469   10024.544    49.56
elaps:  cdiag4        21373       0.019     406.608     2.01
elaps:  c-eigvec      10626       0.794    8439.350    41.73
elaps:  c-buildD      10626       0.274    2911.963    14.40
elaps:  DHSCF4            1      11.009      11.009     0.05
elaps:  dfscf             1      10.433      10.433     0.05
elaps:  overfsm           1       0.058       0.058     0.00
elaps:  optical           1       0.001       0.001     0.00
  
>> End of run:  24-APR-2016  23:52:20
