Siesta Version:                                        siesta-3.2-pl-3
Architecture  : x86_64-unknown-linux-gnu--unknown
Compiler flags: mpiifort -g -O2 -fPIC -xSSE4.1 -fp-model source -shared-intel 
PARALLEL version

* Running on    8 nodes in parallel
>> Start of run:  29-APR-2016  21:59:51

                           ***********************       
                           *  WELCOME TO SIESTA  *       
                           ***********************       

reinit: Reading from standard input
************************** Dump of input data file ****************************
#(1) General system descriptors
SystemName            GRP_doping    # Descriptive name of the system
SystemLabel           GRP_doping    # Short name for naming files
%include STRUCT.fdf
%include KPT.fdf
%include BASIS.fdf
#%include TS.fdf # for transiesta calculation
#(4) DFT, Grid, SCF
XC.functional         GGA           # LDA or GGA (default = LDA)
XC.authors            PBE           # CA (Ceperley-Aldr) = PZ
                                    #    (Perdew-Zunger) - LDA - Default
                                    # PW92 (Perdew-Wang-92) - LDA
                                    # PBE (Perdew-Burke-Ernzerhof) - GGA
MeshCutoff            200.000000    Ry      # Default: 50.0 Ry ~ 0.444 Bohr
                                    #         100.0 Ry ~ 0.314 Bohr
MaxSCFIterations      500           # Default: 50
DM.MixingWeight       0.05          # Default: 0.25
DM.NumberPulay        10            # Default: 0
DM.PulayOnFile        F             # SystemLabel.P1, SystemLabel.P2
DM.Tolerance          1.d-4         # Default: 1.d-4
DM.UseSaveDM          .true.        # because of the bug
SCFMustConverge       .true.
NeglNonOverlapInt     F             # Default: F
#(5) Eigenvalue problem: order-N or diagonalization
SolutionMethod        Diagon        # or Transiesta
ElectronicTemperature 300.0 K       # Default: 300.0 K
#(6) Molecular dynamics and relaxations
#MD.TypeOfRun          CG            # Type of dynamics:
#MD.VariableCell       F
#MD.NumCGsteps         0           # 0 for single-point / 100 for gopt
#MD.MaxCGDispl         0.2 Bohr      # Default: 0.2 Bohr
#MD.MaxForceTol        0.02 eV/Ang   # Default: 0.04 eV/Ang
#MD.MaxStressTol       1.0 GPa       # Default: 1.0 GPa
# Geometry Constraints
#%block GeometryConstraints
#	position from 1 to 44
#%endblock GeometryConstraints
BandLinesScale   pi/a
%block BandLines
 1   0.00000000  0.00000000  0.00000000
50   0.00000000  0.07809418  0.00000000
50   0.04509075  0.07809242  0.00000000
20   0.00000000  0.00000000  0.00000000
%endblock BandLines
************************** End of input data file *****************************

reinit: -----------------------------------------------------------------------
reinit: System Name: GRP_doping
reinit: -----------------------------------------------------------------------
reinit: System Label: GRP_doping                                                  
reinit: -----------------------------------------------------------------------

initatom: Reading input for the pseudopotentials and atomic orbitals ----------
 Species number:            1  Label: B Atomic number:           5
 Species number:            2  Label: C Atomic number:           6
Ground state valence configuration:   2s02  2p01
Reading pseudopotential information in formatted form from B.psf

Valence configuration for pseudopotential generation:
2s( 2.00) rc: 1.74
2p( 1.00) rc: 1.74
3d( 0.00) rc: 1.74
4f( 0.00) rc: 1.74
Ground state valence configuration:   2s02  2p02
Reading pseudopotential information in formatted form from C.psf

Valence configuration for pseudopotential generation:
2s( 2.00) rc: 1.54
2p( 2.00) rc: 1.54
3d( 0.00) rc: 1.54
4f( 0.00) rc: 1.54
For B, standard SIESTA heuristics set lmxkb to 3
 (one more than the basis l, including polarization orbitals).
Use PS.lmax or PS.KBprojectors blocks to override.
For C, standard SIESTA heuristics set lmxkb to 3
 (one more than the basis l, including polarization orbitals).
Use PS.lmax or PS.KBprojectors blocks to override.

<basis_specs>
===============================================================================
B                    Z=   5    Mass=  10.810        Charge= 0.17977+309
Lmxo=1 Lmxkb= 3    BasisType=split      Semic=F
L=0  Nsemic=0  Cnfigmx=2
          n=1  nzeta=2  polorb=0
            splnorm:   0.15000    
               vcte:    0.0000    
               rinn:    0.0000    
                rcs:    0.0000      0.0000    
            lambdas:    1.0000      1.0000    
L=1  Nsemic=0  Cnfigmx=2
          n=1  nzeta=2  polorb=1
            splnorm:   0.15000    
               vcte:    0.0000    
               rinn:    0.0000    
                rcs:    0.0000      0.0000    
            lambdas:    1.0000      1.0000    
-------------------------------------------------------------------------------
L=0  Nkbl=1  erefs: 0.17977+309
L=1  Nkbl=1  erefs: 0.17977+309
L=2  Nkbl=1  erefs: 0.17977+309
L=3  Nkbl=1  erefs: 0.17977+309
===============================================================================
</basis_specs>

atom: Called for B                     (Z =   5)

read_vps: Pseudopotential generation method:
read_vps: ATM3      Troullier-Martins                       
Total valence charge:    3.00000

read_vps: Pseudopotential includes a core correction:
read_vps: Pseudo-core for xc-correction

xc_check: Exchange-correlation functional:
xc_check: GGA Perdew, Burke & Ernzerhof 1996
V l=0 = -2*Zval/r beyond r=  1.7165
V l=1 = -2*Zval/r beyond r=  1.7165
V l=2 = -2*Zval/r beyond r=  1.7165
V l=3 = -2*Zval/r beyond r=  1.6951
All V_l potentials equal beyond r=  1.7165
This should be close to max(r_c) in ps generation
All pots = -2*Zval/r beyond r=  1.7165

VLOCAL1: 99.0% of the norm of Vloc inside     14.733 Ry
VLOCAL1: 99.9% of the norm of Vloc inside     33.577 Ry
atom: Maximum radius for 4*pi*r*r*local-pseudopot. charge    2.04484
atom: Maximum radius for r*vlocal+2*Zval:    1.75994
GHOST: No ghost state for L =  0
GHOST: No ghost state for L =  1
GHOST: No ghost state for L =  2
GHOST: No ghost state for L =  3

KBgen: Kleinman-Bylander projectors: 
   l= 0   rc=  1.897051   el= -0.693730   Ekb=  4.595746   kbcos=  0.286105
   l= 1   rc=  1.920920   el= -0.265236   Ekb= -2.350715   kbcos= -0.315747
   l= 2   rc=  2.044840   el=  0.002055   Ekb= -0.690767   kbcos= -0.013822
   l= 3   rc=  2.149707   el=  0.003188   Ekb= -0.315358   kbcos= -0.002055

KBgen: Total number of  Kleinman-Bylander projectors:   16
atom: -------------------------------------------------------------------------

atom: SANKEY-TYPE ORBITALS:
atom: Selected multiple-zeta basis: split     

SPLIT: Orbitals with angular momentum L= 0

SPLIT: Basis orbitals for state 2s

SPLIT: PAO cut-off radius determined from an
SPLIT: energy shift=  0.007350 Ry

   izeta = 1
                 lambda =    1.000000
                     rc =    5.422032
                 energy =   -0.686029
                kinetic =    0.576707
    potential(screened) =   -1.262736
       potential(ionic) =   -3.271094

   izeta = 2
                 rmatch =    4.222573
              splitnorm =    0.150000
                 energy =   -0.602132
                kinetic =    0.858975
    potential(screened) =   -1.461107
       potential(ionic) =   -3.582536

SPLIT: Orbitals with angular momentum L= 1

SPLIT: Basis orbitals for state 2p

SPLIT: PAO cut-off radius determined from an
SPLIT: energy shift=  0.007350 Ry

   izeta = 1
                 lambda =    1.000000
                     rc =    6.790259
                 energy =   -0.258578
                kinetic =    1.481412
    potential(screened) =   -1.739989
       potential(ionic) =   -3.657461

   izeta = 2
                 rmatch =    4.608740
              splitnorm =    0.150000
                 energy =   -0.173757
                kinetic =    2.186690
    potential(screened) =   -2.360447
       potential(ionic) =   -4.464260

POLgen: Perturbative polarization orbital with L=  2

POLgen: Polarization orbital for state 2p

   izeta = 1
                     rc =    6.790259
                 energy =    0.684082
                kinetic =    1.471481
    potential(screened) =   -0.787399
       potential(ionic) =   -2.406985
atom: Total number of Sankey-type orbitals: 13

atm_pop: Valence configuration (for local Pseudopot. screening):
 2s( 2.00)                                                            
 2p( 1.00)                                                            
Vna: chval, zval:    3.00000   3.00000

Vna:  Cut-off radius for the neutral-atom potential:   6.790259
comcore: Pseudo-core radius Rcore=  2.122997

atom: _________________________________________________________________________

<basis_specs>
===============================================================================
C                    Z=   6    Mass=  12.010        Charge= 0.17977+309
Lmxo=1 Lmxkb= 3    BasisType=split      Semic=F
L=0  Nsemic=0  Cnfigmx=2
          n=1  nzeta=2  polorb=0
            splnorm:   0.15000    
               vcte:    0.0000    
               rinn:    0.0000    
                rcs:    0.0000      0.0000    
            lambdas:    1.0000      1.0000    
L=1  Nsemic=0  Cnfigmx=2
          n=1  nzeta=2  polorb=1
            splnorm:   0.15000    
               vcte:    0.0000    
               rinn:    0.0000    
                rcs:    0.0000      0.0000    
            lambdas:    1.0000      1.0000    
-------------------------------------------------------------------------------
L=0  Nkbl=1  erefs: 0.17977+309
L=1  Nkbl=1  erefs: 0.17977+309
L=2  Nkbl=1  erefs: 0.17977+309
L=3  Nkbl=1  erefs: 0.17977+309
===============================================================================
</basis_specs>

atom: Called for C                     (Z =   6)

read_vps: Pseudopotential generation method:
read_vps: ATM3      Troullier-Martins                       
Total valence charge:    4.00000

read_vps: Pseudopotential includes a core correction:
read_vps: Pseudo-core for xc-correction

xc_check: Exchange-correlation functional:
xc_check: GGA Perdew, Burke & Ernzerhof 1996
V l=0 = -2*Zval/r beyond r=  1.5227
V l=1 = -2*Zval/r beyond r=  1.5227
V l=2 = -2*Zval/r beyond r=  1.5227
V l=3 = -2*Zval/r beyond r=  1.5038
All V_l potentials equal beyond r=  1.5227
This should be close to max(r_c) in ps generation
All pots = -2*Zval/r beyond r=  1.5227

VLOCAL1: 99.0% of the norm of Vloc inside     18.722 Ry
VLOCAL1: 99.9% of the norm of Vloc inside     42.668 Ry
atom: Maximum radius for 4*pi*r*r*local-pseudopot. charge    1.83678
atom: Maximum radius for r*vlocal+2*Zval:    1.58088
GHOST: No ghost state for L =  0
GHOST: No ghost state for L =  1
GHOST: No ghost state for L =  2
GHOST: No ghost state for L =  3

KBgen: Kleinman-Bylander projectors: 
   l= 0   rc=  1.704034   el= -1.009801   Ekb=  5.335044   kbcos=  0.316824
   l= 1   rc=  1.704034   el= -0.388707   Ekb= -3.785862   kbcos= -0.366464
   l= 2   rc=  1.791422   el=  0.001971   Ekb= -0.970471   kbcos= -0.009212
   l= 3   rc=  1.859892   el=  0.003065   Ekb= -0.399525   kbcos= -0.001223

KBgen: Total number of  Kleinman-Bylander projectors:   16
atom: -------------------------------------------------------------------------

atom: SANKEY-TYPE ORBITALS:
atom: Selected multiple-zeta basis: split     

SPLIT: Orbitals with angular momentum L= 0

SPLIT: Basis orbitals for state 2s

SPLIT: PAO cut-off radius determined from an
SPLIT: energy shift=  0.007350 Ry

   izeta = 1
                 lambda =    1.000000
                     rc =    4.632753
                 energy =   -1.002270
                kinetic =    0.855760
    potential(screened) =   -1.858031
       potential(ionic) =   -5.417575

   izeta = 2
                 rmatch =    3.431921
              splitnorm =    0.150000
                 energy =   -0.867111
                kinetic =    1.300804
    potential(screened) =   -2.167915
       potential(ionic) =   -5.962684

SPLIT: Orbitals with angular momentum L= 1

SPLIT: Basis orbitals for state 2p

SPLIT: PAO cut-off radius determined from an
SPLIT: energy shift=  0.007350 Ry

   izeta = 1
                 lambda =    1.000000
                     rc =    5.658549
                 energy =   -0.381140
                kinetic =    2.399701
    potential(screened) =   -2.780841
       potential(ionic) =   -6.206085

   izeta = 2
                 rmatch =    3.653288
              splitnorm =    0.150000
                 energy =   -0.249149
                kinetic =    3.542762
    potential(screened) =   -3.791911
       potential(ionic) =   -7.581078

POLgen: Perturbative polarization orbital with L=  2

POLgen: Polarization orbital for state 2p

   izeta = 1
                     rc =    5.658549
                 energy =    1.109913
                kinetic =    2.304789
    potential(screened) =   -1.194876
       potential(ionic) =   -4.013592
atom: Total number of Sankey-type orbitals: 13

atm_pop: Valence configuration (for local Pseudopot. screening):
 2s( 2.00)                                                            
 2p( 2.00)                                                            
Vna: chval, zval:    4.00000   4.00000

Vna:  Cut-off radius for the neutral-atom potential:   5.658549
comcore: Pseudo-core radius Rcore=  1.791422

atom: _________________________________________________________________________

prinput: Basis input ----------------------------------------------------------

PAO.BasisType split     

%block ChemicalSpeciesLabel
    1    5 B                       # Species index, atomic number, species label
    2    6 C                       # Species index, atomic number, species label
%endblock ChemicalSpeciesLabel

%block PAO.Basis                 # Define Basis set
B                     2                    # Species label, number of l-shells
 n=2   0   2                         # n, l, Nzeta 
   5.422      4.223   
   1.000      1.000   
 n=2   1   2 P   1                   # n, l, Nzeta, Polarization, NzetaPol
   6.790      4.609   
   1.000      1.000   
C                     2                    # Species label, number of l-shells
 n=2   0   2                         # n, l, Nzeta 
   4.633      3.432   
   1.000      1.000   
 n=2   1   2 P   1                   # n, l, Nzeta, Polarization, NzetaPol
   5.659      3.653   
   1.000      1.000   
%endblock PAO.Basis

prinput: ----------------------------------------------------------------------

coor:   Atomic-coordinates input format  =     Fractional

siesta: Atomic coordinates (Bohr) and species
siesta:      4.63094  34.85847   0.00000  1        1
siesta:      6.95932  30.82560   0.00000  1        2
siesta:      6.95932  33.51406   0.00000  1        3
siesta:     -0.02582  13.34970   0.00000  1        4
siesta:     -0.02582  18.72698   0.00000  1        5
siesta:     -0.02582  21.41544   0.00000  1        6
siesta:      2.30256  22.75985   0.00000  1        7
siesta:      2.30256  25.44831   0.00000  1        8
siesta:     -2.35420  22.75985   0.00000  1        9
siesta:     -2.35420  25.44831   0.00000  1       10
siesta:      4.63094  26.79272   0.00000  1       11
siesta:      4.63094  29.48119   0.00000  1       12
siesta:     -0.02582  26.79272   0.00000  1       13
siesta:     -0.02582  29.48119   0.00000  1       14
siesta:      2.30256  30.82560   0.00000  1       15
siesta:      2.30256  33.51406   0.00000  1       16
siesta:     -2.35420  30.82560   0.00000  1       17
siesta:     -2.35420  33.51406   0.00000  1       18
siesta:     -0.02582  34.85847   0.00000  1       19
siesta:     -0.02582   2.59549   0.00000  2       20
siesta:     -0.02582   5.28395   0.00000  2       21
siesta:     -2.35420  38.89134   0.00000  2       22
siesta:     -2.35420  41.57980   0.00000  2       23
siesta:      2.30256  38.89134   0.00000  2       24
siesta:      2.30256  41.57980   0.00000  2       25
siesta:      4.63094  37.54693   0.00000  2       26
siesta:      9.28770  26.79272   0.00000  2       27
siesta:      9.28770  29.48119   0.00000  2       28
siesta:     -4.68258  34.85847   0.00000  2       29
siesta:     -4.68258  37.54693   0.00000  2       30
siesta:      2.30256   6.62836   0.00000  2       31
siesta:      2.30256   9.31683   0.00000  2       32
siesta:      4.63094  10.66124   0.00000  2       33
siesta:      4.63094  13.34970   0.00000  2       34
siesta:      6.95932  14.69411   0.00000  2       35
siesta:      6.95932  17.38257   0.00000  2       36
siesta:      9.28770  18.72698   0.00000  2       37
siesta:      9.28770  21.41544   0.00000  2       38
siesta:     11.61608  22.75985   0.00000  2       39
siesta:     11.61608  25.44831   0.00000  2       40
siesta:     -2.35420   6.62836   0.00000  2       41
siesta:     -2.35420   9.31683   0.00000  2       42
siesta:     -0.02582  10.66124   0.00000  2       43
siesta:      2.30256  14.69411   0.00000  2       44
siesta:      2.30256  17.38257   0.00000  2       45
siesta:      4.63094  18.72698   0.00000  2       46
siesta:      4.63094  21.41544   0.00000  2       47
siesta:      6.95932  22.75985   0.00000  2       48
siesta:      6.95932  25.44831   0.00000  2       49
siesta:     -4.68258  10.66124   0.00000  2       50
siesta:     -4.68258  13.34970   0.00000  2       51
siesta:     -2.35420  14.69411   0.00000  2       52
siesta:     -2.35420  17.38257   0.00000  2       53
siesta:     -7.01096  14.69411   0.00000  2       54
siesta:     -7.01096  17.38257   0.00000  2       55
siesta:     -4.68258  18.72698   0.00000  2       56
siesta:     -4.68258  21.41544   0.00000  2       57
siesta:     -9.33934  18.72698   0.00000  2       58
siesta:     -9.33934  21.41544   0.00000  2       59
siesta:     -7.01096  22.75985   0.00000  2       60
siesta:     -7.01096  25.44831   0.00000  2       61
siesta:    -11.66772  22.75985   0.00000  2       62
siesta:    -11.66772  25.44831   0.00000  2       63
siesta:     -9.33934  26.79272   0.00000  2       64
siesta:     -9.33934  29.48119   0.00000  2       65
siesta:     -4.68258  26.79272   0.00000  2       66
siesta:     -4.68258  29.48119   0.00000  2       67
siesta:     -7.01096  30.82560   0.00000  2       68
siesta:     -7.01096  33.51406   0.00000  2       69
siesta:     -0.02582  37.54693   0.00000  2       70
siesta:     -0.02582  42.92421   0.00000  2       71
siesta:     -0.02582  45.61267   0.00000  2       72

siesta: System type = slab      

initatomlists: Number of atoms, orbitals, and projectors:     72   936  1152

siesta: ******************** Simulation parameters ****************************
siesta:
siesta: The following are some of the parameters of the simulation.
siesta: A complete list of the parameters used, including default values,
siesta: can be found in file out.fdf
siesta:
redata: Non-Collinear-spin run           =     F
redata: SpinPolarized (Up/Down) run      =     F
redata: Number of spin components        =     1
redata: Long output                      =     F
redata: Number of Atomic Species         =        2
redata: Charge density info will appear in .RHO file
redata: Write Mulliken Pop.              =     NO
redata: Mesh Cutoff                      =   200.0000  Ry
redata: Net charge of the system         =     0.0000 |e|
redata: Max. number of SCF Iter          =      500
redata: SCF convergence failure will abort job
redata: Performing Pulay mixing using    =    10 iterations
redata: Mix DM in first SCF step ?       =     F
redata: Write Pulay info on disk?        =     F
redata: Discard 1st Pulay DM after  kick =     F
redata: New DM Mixing Weight             =     0.0500
redata: New DM Occupancy tolerance       = 0.000000000001
redata: No kicks to SCF
redata: DM Mixing Weight for Kicks       =     0.5000
redata: DM Tolerance for SCF             =     0.000100
redata: Require Energy convergence for SCF =     F
redata: DM Energy tolerance for SCF      =     0.000100 eV
redata: Require Harris convergence for SCF =     F
redata: DM Harris energy tolerance for SCF =     0.000100 eV
redata: Using Saved Data (generic)   =     F
redata: Use continuation files for DM    =     T
redata: Neglect nonoverlap interactions  =     F
redata: Method of Calculation            =     Diagonalization
redata: Divide and Conquer               =     T
redata: Electronic Temperature           =     0.0019  Ry
redata: Fix the spin of the system       =     F
redata: Dynamics option                  =     Verlet MD run
redata: Initial MD time step             =        1
redata:   Final MD time step             =        1
redata: Length of MD time step           =     1.0000  fs
redata: Initial Temperature of MD run    =     0.0000  K
redata: Perform a MD quench              =     F
redata: ***********************************************************************
Total number of electrons:   269.000000
Total ionic charge:   269.000000

* ProcessorY, Blocksize:    2  24

k-point displ. along   1 input, could be:     0.50    0.00
k-point displ. along   2 input, could be:     0.50    0.00
 Kpoints in:          231 . Kpoints trimmed:          231

siesta: k-grid: Number of k-points =   231
siesta: k-grid: Cutoff (effective) =     5.000 Ang
siesta: k-grid: Supercell and displacements
siesta: k-grid:   21   0   0      0.500
siesta: k-grid:    0  21   0      0.500
siesta: k-grid:    0   0   1      0.000
Naive supercell factors:     2    2    2

superc: Internal auxiliary supercell:     2 x     2 x     2  =       8
superc: Number of atoms, orbitals, and projectors:    576   7488   9216

* Maximum dynamic memory allocated =     4 MB

siesta:                 ==============================
                            Begin MD step =      1
                        ==============================

superc: Internal auxiliary supercell:     2 x     2 x     2  =       8
superc: Number of atoms, orbitals, and projectors:    576   7488   9216

outcell: Unit cell vectors (Ang):
       12.804619    7.392750    0.000000
        0.000000   14.785500    0.000000
        0.000000    0.000000   10.000000

outcell: Cell vector modules (Ang)   :   14.785500   14.785500   10.000000
outcell: Cell angles (23,13,12) (deg):     90.0000     90.0000     60.0000
outcell: Cell volume (Ang**3)        :   1893.2269
New_DM. Step:     1
Initializing Density Matrix...

InitMesh: MESH =   120 x   120 x    90 =     1296000
InitMesh: Mesh cutoff (required, used) =   200.000   223.865 Ry

* Maximum dynamic memory allocated =   224 MB

stepf: Fermi-Dirac step function

siesta: Program's energy decomposition (eV):
siesta: Ebs     =     -5545.943215
siesta: Eions   =     15969.933558
siesta: Ena     =      4262.159465
siesta: Ekin    =      5376.155659
siesta: Enl     =       801.291763
siesta: DEna    =        -0.000008
siesta: DUscf   =         0.000000
siesta: DUext   =         0.000000
siesta: Exc     =     -4195.781258
siesta: eta*DQ  =         0.000000
siesta: Emadel  =         0.000000
siesta: Emeta   =         0.000000
siesta: Emolmec =         0.000000
siesta: Ekinion =         0.000000
siesta: Eharris =     -9496.072366
siesta: Etot    =     -9726.107938
siesta: FreeEng =     -9726.107938

siesta: iscf   Eharris(eV)      E_KS(eV)   FreeEng(eV)   dDmax  Ef(eV)
siesta:    1    -9496.0724    -9726.1079    -9726.1079  6.4631 -8.3287
timer: Routine,Calls,Time,% = IterSCF        1    3475.437  99.66
elaps: Routine,Calls,Wall,% = IterSCF        1     435.337  99.65
siesta:    2   -14936.5851    -8684.1188    -8684.2139 18.7095 -5.0340
siesta:    3    -9456.0503    -9574.0141    -9574.0512  3.1956 -6.3455
siesta:    4    -9436.5801    -9466.7357    -9466.7702  1.5542 -5.3662
siesta:    5    -9364.8689    -9396.7421    -9396.7716  1.1506 -5.5232
siesta:    6    -9347.3614    -9343.3545    -9343.4034  0.8868 -5.2321
siesta:    7    -9344.3190    -9336.8323    -9336.8730  0.8469 -5.2935
siesta:    8    -9340.3254    -9331.9138    -9331.9593  0.6848 -5.2753
siesta:    9    -9338.0782    -9322.5438    -9322.6024  0.5601 -5.1236
siesta:   10    -9337.5516    -9316.0629    -9316.1212  0.3947 -5.0684
siesta:   11    -9336.9752    -9312.7774    -9312.8464  0.3933 -5.0540
siesta:   12    -9338.1532    -9307.8496    -9307.8935  0.2852 -4.9587
siesta:   13    -9336.8736    -9309.5440    -9309.5989  0.1604 -5.0432
siesta:   14    -9336.5711    -9314.9043    -9314.9442  0.1236 -5.0864
siesta:   15    -9336.2857    -9317.3240    -9317.3622  0.1245 -5.0971
siesta:   16    -9336.0553    -9323.8774    -9323.9240  0.1122 -5.1144
siesta:   17    -9335.9500    -9326.7534    -9326.8003  0.0748 -5.1103
siesta:   18    -9335.9348    -9328.4036    -9328.4659  0.0570 -5.1316
siesta:   19    -9335.9176    -9332.0212    -9332.0665  0.0384 -5.1406
siesta:   20    -9335.9071    -9333.9185    -9333.9658  0.0457 -5.1428
siesta:   21    -9335.8910    -9335.6040    -9335.6508  0.0342 -5.1413
siesta:   22    -9335.8881    -9336.2566    -9336.3070  0.0174 -5.1395
siesta:   23    -9335.8850    -9336.5080    -9336.5583  0.0111 -5.1330
siesta:   24    -9335.8842    -9336.4191    -9336.4713  0.0085 -5.1261
siesta:   25    -9335.8847    -9336.2800    -9336.3321  0.0068 -5.1244
siesta:   26    -9335.8848    -9336.2005    -9336.2513  0.0058 -5.1245
siesta:   27    -9335.8845    -9336.0659    -9336.1164  0.0039 -5.1242
siesta:   28    -9335.8840    -9336.0498    -9336.1005  0.0028 -5.1247
siesta:   29    -9335.8842    -9336.0173    -9336.0684  0.0017 -5.1255
siesta:   30    -9335.8842    -9336.0404    -9336.0912  0.0007 -5.1259
siesta:   31    -9335.8842    -9336.0355    -9336.0864  0.0006 -5.1259
siesta:   32    -9335.8842    -9335.9951    -9336.0459  0.0005 -5.1258
siesta:   33    -9335.8842    -9335.9687    -9336.0195  0.0004 -5.1258
siesta:   34    -9335.8842    -9335.9544    -9336.0053  0.0003 -5.1259
siesta:   35    -9335.8842    -9335.9385    -9335.9893  0.0003 -5.1260
siesta:   36    -9335.8842    -9335.9076    -9335.9584  0.0002 -5.1259
siesta:   37    -9335.8842    -9335.8922    -9335.9431  0.0001 -5.1259

siesta: E_KS(eV) =            -9335.8879

siesta: E_KS - E_eggbox =     -9335.8879

siesta: Atomic forces (eV/Ang):
----------------------------------------
   Tot   -0.197707   -0.118745    0.000000
----------------------------------------
   Max  555.042439
   Res  144.294932    sqrt( Sum f_i^2 / 3N )
----------------------------------------
   Max  555.042439    constrained

Stress-tensor-Voigt (kbar):     -762.97    -2624.97       -0.61        3.27        0.00        0.00
(Free)E + p*V (eV/cell)    -8001.2523
Target enthalpy (eV/cell)    -9335.9388

siesta: Stress tensor (static) (eV/Ang**3):
        -0.476203    0.002040    0.000000
         0.002041   -1.638358    0.000000
         0.000000    0.000000   -0.000378

siesta: Pressure (static):       1129.51418315  kBar

siesta: Stress tensor (total) (eV/Ang**3):
        -0.476203    0.002040    0.000000
         0.002041   -1.638358    0.000000
         0.000000    0.000000   -0.000378

siesta: Pressure (total):       1129.51418315  kBar

siesta: Temp_ion =       0.000 K

* Maximum dynamic memory allocated =   240 MB
Computing bands...

siesta: Program's energy decomposition (eV):
siesta: Ebs     =     -4152.027248
siesta: Eions   =     15969.933558
siesta: Ena     =      4262.159465
siesta: Ekin    =      8224.869579
siesta: Enl     =      -814.792008
siesta: DEna    =      -779.468256
siesta: DUscf   =       106.116436
siesta: DUext   =         0.000000
siesta: Exc     =     -4364.839600
siesta: eta*DQ  =         0.000000
siesta: Emadel  =         0.000000
siesta: Emeta   =         0.000000
siesta: Emolmec =         0.000000
siesta: Ekinion =         0.000000
siesta: Eharris =     -9335.884165
siesta: Etot    =     -9335.887943
siesta: FreeEng =     -9335.938786

siesta: Final energy (eV):
siesta:  Band Struct. =   -4152.027248
siesta:       Kinetic =    8224.869579
siesta:       Hartree =   26506.792266
siesta:    Ext. field =       0.000000
siesta:   Exch.-corr. =   -4364.839600
siesta:  Ion-electron =  -60922.033110
siesta:       Ion-ion =   21219.322922
siesta:       Ekinion =       0.000000
siesta:         Total =   -9335.887943

siesta: Atomic forces (eV/Ang):
siesta:      1   15.877120    3.712238    0.000000
siesta:      2    8.364949    0.119198    0.000000
siesta:      3    3.351850    3.400000    0.000000
siesta:      4    0.366162 -113.898326    0.000000
siesta:      5    0.398295  411.825631    0.000000
siesta:      6   -0.475357   -0.038004    0.000000
siesta:      7    5.313899   -4.240235    0.000000
siesta:      8   -2.962887    3.889517    0.000000
siesta:      9   -3.074331   -4.233704    0.000000
siesta:     10   -4.075767    3.905757    0.000000
siesta:     11    5.234280   -4.127683    0.000000
siesta:     12   -2.071253    1.512007    0.000000
siesta:     13    1.158184   -0.999868    0.000000
siesta:     14   -0.614348 -410.844809    0.000000
siesta:     15   15.559417    0.745886    0.000000
siesta:     16   13.587812 -399.360585    0.000000
siesta:     17  -19.016768   -0.365463    0.000000
siesta:     18  -16.856863 -401.283426    0.000000
siesta:     19    2.168151  106.994688    0.000000
siesta:     20   -0.681993  406.425090    0.000000
siesta:     21   -1.709282 -123.430860    0.000000
siesta:     22    3.088068  128.279827    0.000000
siesta:     23  -20.768791 -550.324246    0.000000
siesta:     24   -2.875228  126.552416    0.000000
siesta:     25   23.256966 -551.945080    0.000000
siesta:     26   27.322461 -548.681299    0.000000
siesta:     27    3.821829    2.296119    0.000000
siesta:     28    0.471626   -2.725034    0.000000
siesta:     29  -25.163355   -0.632085    0.000000
siesta:     30  -29.059976 -549.970926    0.000000
siesta:     31   16.913572  403.459270    0.000000
siesta:     32   -0.982159 -126.531701    0.000000
siesta:     33   37.102021  555.042439    0.000000
siesta:     34   26.762326   -4.207290    0.000000
siesta:     35   -2.567363   -2.150564    0.000000
siesta:     36    2.569451   -0.447034    0.000000
siesta:     37   -1.336942   -0.754770    0.000000
siesta:     38    2.490299   -1.561104    0.000000
siesta:     39   -0.006112    7.349948    0.000000
siesta:     40   -0.002926   -7.463905    0.000000
siesta:     41  -14.968429  407.458087    0.000000
siesta:     42    3.599916 -126.106372    0.000000
siesta:     43   -2.254065  554.418107    0.000000
siesta:     44   17.058040  552.972116    0.000000
siesta:     45   20.917862   -2.485833    0.000000
siesta:     46   -0.901050    1.513199    0.000000
siesta:     47    2.840468   -1.657438    0.000000
siesta:     48    0.527594    0.009458    0.000000
siesta:     49    1.518413   -2.049451    0.000000
siesta:     50  -35.304093  551.608445    0.000000
siesta:     51  -27.915101   -4.542215    0.000000
siesta:     52  -18.171065  551.401086    0.000000
siesta:     53  -21.152012   -2.553121    0.000000
siesta:     54    2.729618   -1.903066    0.000000
siesta:     55   -2.521925   -0.165752    0.000000
siesta:     56    0.721039    1.310759    0.000000
siesta:     57   -2.928041   -1.172126    0.000000
siesta:     58    0.934870   -0.438885    0.000000
siesta:     59   -1.696721   -1.877926    0.000000
siesta:     60   -0.178003    0.027922    0.000000
siesta:     61    0.125531   -0.416926    0.000000
siesta:     62   -0.667014    6.340818    0.000000
siesta:     63    0.639587   -6.569683    0.000000
siesta:     64   -2.738859    1.761883    0.000000
siesta:     65    1.570710    0.619663    0.000000
siesta:     66   -3.258226    1.143535    0.000000
siesta:     67   -1.474909   -2.283459    0.000000
siesta:     68   -3.129477   -0.037198    0.000000
siesta:     69    2.400791    2.390289    0.000000
siesta:     70    3.868158 -551.512534    0.000000
siesta:     71   -1.255584  127.319358    0.000000
siesta:     72   -0.012768 -409.933515    0.000000
siesta: ----------------------------------------
siesta:    Tot   -0.197707   -0.118745    0.000000

siesta: Stress tensor (static) (eV/Ang**3):
siesta:    -0.476203    0.002040    0.000000
siesta:     0.002041   -1.638358    0.000000
siesta:     0.000000    0.000000   -0.000378

siesta: Cell volume =       1893.226884 Ang**3

siesta: Pressure (static):
siesta:                Solid            Molecule  Units
siesta:           0.00767813          0.11041570  Ry/Bohr**3
siesta:           0.70497968         10.13799418  eV/Ang**3
siesta:        1129.51418315      16243.03296227  kBar
(Free)E+ p_basis*V_orbitals  =       -9299.198054
(Free)Eharris+ p_basis*V_orbitals  =       -9299.189998

siesta: Electric dipole (a.u.)  =    0.000000    0.000000    0.000000
siesta: Electric dipole (Debye) =    0.000000    0.000000    0.000000

* Maximum dynamic memory allocated : Node    0 =   240 MB
* Maximum dynamic memory allocated : Node    1 =    83 MB
* Maximum dynamic memory allocated : Node    2 =    85 MB
* Maximum dynamic memory allocated : Node    3 =   227 MB
* Maximum dynamic memory allocated : Node    4 =   224 MB
* Maximum dynamic memory allocated : Node    5 =    82 MB
* Maximum dynamic memory allocated : Node    6 =    84 MB
* Maximum dynamic memory allocated : Node    7 =   207 MB

* Maximum memory occured during matrixMtoO                    

timer: CPU execution times:
timer:  Routine       Calls   Time/call    Tot.time        %
timer:  siesta            1  127204.914  127204.914   100.00
timer:  Setup             1       3.844       3.844     0.00
timer:  bands             3     243.853     731.558     0.58
timer:  writewave         1       0.045       0.045     0.00
timer:  KSV_init          1       0.007       0.007     0.00
timer:  IterMD            1  126464.288  126464.288    99.42
timer:  hsparse           1       0.515       0.515     0.00
timer:  overlap           1       7.209       7.209     0.01
timer:  IterSCF          37    3412.225  126252.338    99.25
timer:  kinefsm           2       3.752       7.504     0.01
timer:  nlefsm            2      19.931      39.862     0.03
timer:  DHSCF            38     108.597    4126.692     3.24
timer:  DHSCF1            1       0.991       0.991     0.00
timer:  DHSCF2            1      42.367      42.367     0.03
timer:  REORD           306       0.005       1.624     0.00
timer:  POISON           39       0.880      34.314     0.03
timer:  DHSCF3           38     106.365    4041.887     3.18
timer:  rhoofd           38      23.891     907.849     0.71
timer:  cellXC           38       3.263     123.976     0.10
timer:  vmat             38      49.818    1893.097     1.49
timer:  MolMec            2       0.000       0.000     0.00
timer:  diagon           37    3302.637  122197.580    96.06
timer:  c-eigval       8668       6.028   52251.333    41.08
timer:  c-buildHS      8668       0.052     449.121     0.35
timer:  cdiag         17215       6.167  106164.190    83.46
timer:  cdiag1        17215       0.386    6649.066     5.23
timer:  cdiag2        17215       1.768   30434.482    23.93
timer:  cdiag3        17215       3.729   64193.870    50.46
timer:  cdiag4        17215       0.158    2726.786     2.14
timer:  c-eigvec       8547       6.406   54748.199    43.04
timer:  c-buildD       8547       1.859   15886.404    12.49
timer:  DHSCF4            1      40.686      40.686     0.03
timer:  dfscf             1      37.916      37.916     0.03
timer:  overfsm           1       0.456       0.456     0.00
timer:  optical           1       4.594       4.594     0.00
  

elaps: ELAPSED times:
elaps:  Routine       Calls   Time/call    Tot.time        %
elaps:  siesta            1   15930.744   15930.744   100.00
elaps:  Setup             1       0.500       0.500     0.00
elaps:  bands             3      30.558      91.675     0.58
elaps:  writewave         1       0.006       0.006     0.00
elaps:  KSV_init          1       0.001       0.001     0.00
elaps:  IterMD            1   15837.966   15837.966    99.42
elaps:  hsparse           1       0.069       0.069     0.00
elaps:  overlap           1       0.917       0.917     0.01
elaps:  IterSCF          37     427.339   15811.557    99.25
elaps:  kinefsm           2       0.474       0.948     0.01
elaps:  nlefsm            2       2.518       5.036     0.03
elaps:  DHSCF            38      13.734     521.902     3.28
elaps:  DHSCF1            1       0.127       0.127     0.00
elaps:  DHSCF2            1       5.305       5.305     0.03
elaps:  REORD           306       0.001       0.207     0.00
elaps:  POISON           39       0.110       4.290     0.03
elaps:  DHSCF3           38      13.321     506.214     3.18
elaps:  rhoofd           38       6.489     246.577     1.55
elaps:  cellXC           38       0.408      15.510     0.10
elaps:  vmat             38       6.240     237.104     1.49
elaps:  MolMec            2       0.000       0.000     0.00
elaps:  diagon           37     413.610   15303.567    96.06
elaps:  c-eigval       8668       0.755    6543.563    41.08
elaps:  c-buildHS      8668       0.007      62.118     0.39
elaps:  cdiag         17215       0.767   13211.269    82.93
elaps:  cdiag1        17215       0.048     833.485     5.23
elaps:  cdiag2        17215       0.221    3812.337    23.93
elaps:  cdiag3        17215       0.468    8049.564    50.53
elaps:  cdiag4        17215       0.020     336.012     2.11
elaps:  c-eigvec       8547       0.794    6782.514    42.57
elaps:  c-buildD       8547       0.241    2063.219    12.95
elaps:  DHSCF4            1      10.163      10.163     0.06
elaps:  dfscf             1       9.611       9.611     0.06
elaps:  overfsm           1       0.062       0.062     0.00
elaps:  optical           1       0.001       0.001     0.00
  
>> End of run:  30-APR-2016   2:25:22
