Siesta Version:                                        siesta-3.2-pl-3
Architecture  : x86_64-unknown-linux-gnu--unknown
Compiler flags: mpiifort -g -O2 -fPIC -xSSE4.1 -fp-model source -shared-intel 
PARALLEL version

* Running on   12 nodes in parallel
>> Start of run:   4-MAY-2016   9:35:59

                           ***********************       
                           *  WELCOME TO SIESTA  *       
                           ***********************       

reinit: Reading from standard input
************************** Dump of input data file ****************************
#(1) General system descriptors
SystemName            GRP_doping    # Descriptive name of the system
SystemLabel           GRP_doping    # Short name for naming files
%include STRUCT.fdf
%include KPT.fdf
%include BASIS.fdf
#%include TS.fdf # for transiesta calculation
#(4) DFT, Grid, SCF
XC.functional         GGA           # LDA or GGA (default = LDA)
XC.authors            PBE           # CA (Ceperley-Aldr) = PZ
                                    #    (Perdew-Zunger) - LDA - Default
                                    # PW92 (Perdew-Wang-92) - LDA
                                    # PBE (Perdew-Burke-Ernzerhof) - GGA
MeshCutoff            200.000000    Ry      # Default: 50.0 Ry ~ 0.444 Bohr
                                    #         100.0 Ry ~ 0.314 Bohr
MaxSCFIterations      500           # Default: 50
DM.MixingWeight       0.05          # Default: 0.25
DM.NumberPulay        10            # Default: 0
DM.PulayOnFile        F             # SystemLabel.P1, SystemLabel.P2
DM.Tolerance          1.d-4         # Default: 1.d-4
DM.UseSaveDM          .true.        # because of the bug
SCFMustConverge       .true.
NeglNonOverlapInt     F             # Default: F
#(5) Eigenvalue problem: order-N or diagonalization
SolutionMethod        Diagon        # or Transiesta
ElectronicTemperature 300.0 K       # Default: 300.0 K
#(6) Molecular dynamics and relaxations
#MD.TypeOfRun          CG            # Type of dynamics:
#MD.VariableCell       F
#MD.NumCGsteps         0           # 0 for single-point / 100 for gopt
#MD.MaxCGDispl         0.2 Bohr      # Default: 0.2 Bohr
#MD.MaxForceTol        0.02 eV/Ang   # Default: 0.04 eV/Ang
#MD.MaxStressTol       1.0 GPa       # Default: 1.0 GPa
# Geometry Constraints
#%block GeometryConstraints
#	position from 1 to 44
#%endblock GeometryConstraints
BandLinesScale   pi/a
%block BandLines
 1   0.00000000  0.00000000  0.00000000
50   0.00000000  0.07809418  0.00000000
50   0.04509075  0.07809242  0.00000000
20   0.00000000  0.00000000  0.00000000
%endblock BandLines
************************** End of input data file *****************************

reinit: -----------------------------------------------------------------------
reinit: System Name: GRP_doping
reinit: -----------------------------------------------------------------------
reinit: System Label: GRP_doping                                                  
reinit: -----------------------------------------------------------------------

initatom: Reading input for the pseudopotentials and atomic orbitals ----------
 Species number:            1  Label: B Atomic number:           5
 Species number:            2  Label: C Atomic number:           6
Ground state valence configuration:   2s02  2p01
Reading pseudopotential information in formatted form from B.psf

Valence configuration for pseudopotential generation:
2s( 2.00) rc: 1.74
2p( 1.00) rc: 1.74
3d( 0.00) rc: 1.74
4f( 0.00) rc: 1.74
Ground state valence configuration:   2s02  2p02
Reading pseudopotential information in formatted form from C.psf

Valence configuration for pseudopotential generation:
2s( 2.00) rc: 1.54
2p( 2.00) rc: 1.54
3d( 0.00) rc: 1.54
4f( 0.00) rc: 1.54
For B, standard SIESTA heuristics set lmxkb to 3
 (one more than the basis l, including polarization orbitals).
Use PS.lmax or PS.KBprojectors blocks to override.
For C, standard SIESTA heuristics set lmxkb to 3
 (one more than the basis l, including polarization orbitals).
Use PS.lmax or PS.KBprojectors blocks to override.

<basis_specs>
===============================================================================
B                    Z=   5    Mass=  10.810        Charge= 0.17977+309
Lmxo=1 Lmxkb= 3    BasisType=split      Semic=F
L=0  Nsemic=0  Cnfigmx=2
          n=1  nzeta=2  polorb=0
            splnorm:   0.15000    
               vcte:    0.0000    
               rinn:    0.0000    
                rcs:    0.0000      0.0000    
            lambdas:    1.0000      1.0000    
L=1  Nsemic=0  Cnfigmx=2
          n=1  nzeta=2  polorb=1
            splnorm:   0.15000    
               vcte:    0.0000    
               rinn:    0.0000    
                rcs:    0.0000      0.0000    
            lambdas:    1.0000      1.0000    
-------------------------------------------------------------------------------
L=0  Nkbl=1  erefs: 0.17977+309
L=1  Nkbl=1  erefs: 0.17977+309
L=2  Nkbl=1  erefs: 0.17977+309
L=3  Nkbl=1  erefs: 0.17977+309
===============================================================================
</basis_specs>

atom: Called for B                     (Z =   5)

read_vps: Pseudopotential generation method:
read_vps: ATM3      Troullier-Martins                       
Total valence charge:    3.00000

read_vps: Pseudopotential includes a core correction:
read_vps: Pseudo-core for xc-correction

xc_check: Exchange-correlation functional:
xc_check: GGA Perdew, Burke & Ernzerhof 1996
V l=0 = -2*Zval/r beyond r=  1.7165
V l=1 = -2*Zval/r beyond r=  1.7165
V l=2 = -2*Zval/r beyond r=  1.7165
V l=3 = -2*Zval/r beyond r=  1.6951
All V_l potentials equal beyond r=  1.7165
This should be close to max(r_c) in ps generation
All pots = -2*Zval/r beyond r=  1.7165

VLOCAL1: 99.0% of the norm of Vloc inside     14.733 Ry
VLOCAL1: 99.9% of the norm of Vloc inside     33.577 Ry
atom: Maximum radius for 4*pi*r*r*local-pseudopot. charge    2.04484
atom: Maximum radius for r*vlocal+2*Zval:    1.75994
GHOST: No ghost state for L =  0
GHOST: No ghost state for L =  1
GHOST: No ghost state for L =  2
GHOST: No ghost state for L =  3

KBgen: Kleinman-Bylander projectors: 
   l= 0   rc=  1.897051   el= -0.693730   Ekb=  4.595746   kbcos=  0.286105
   l= 1   rc=  1.920920   el= -0.265236   Ekb= -2.350715   kbcos= -0.315747
   l= 2   rc=  2.044840   el=  0.002055   Ekb= -0.690767   kbcos= -0.013822
   l= 3   rc=  2.149707   el=  0.003188   Ekb= -0.315358   kbcos= -0.002055

KBgen: Total number of  Kleinman-Bylander projectors:   16
atom: -------------------------------------------------------------------------

atom: SANKEY-TYPE ORBITALS:
atom: Selected multiple-zeta basis: split     

SPLIT: Orbitals with angular momentum L= 0

SPLIT: Basis orbitals for state 2s

SPLIT: PAO cut-off radius determined from an
SPLIT: energy shift=  0.007350 Ry

   izeta = 1
                 lambda =    1.000000
                     rc =    5.422032
                 energy =   -0.686029
                kinetic =    0.576707
    potential(screened) =   -1.262736
       potential(ionic) =   -3.271094

   izeta = 2
                 rmatch =    4.222573
              splitnorm =    0.150000
                 energy =   -0.602132
                kinetic =    0.858975
    potential(screened) =   -1.461107
       potential(ionic) =   -3.582536

SPLIT: Orbitals with angular momentum L= 1

SPLIT: Basis orbitals for state 2p

SPLIT: PAO cut-off radius determined from an
SPLIT: energy shift=  0.007350 Ry

   izeta = 1
                 lambda =    1.000000
                     rc =    6.790259
                 energy =   -0.258578
                kinetic =    1.481412
    potential(screened) =   -1.739989
       potential(ionic) =   -3.657461

   izeta = 2
                 rmatch =    4.608740
              splitnorm =    0.150000
                 energy =   -0.173757
                kinetic =    2.186690
    potential(screened) =   -2.360447
       potential(ionic) =   -4.464260

POLgen: Perturbative polarization orbital with L=  2

POLgen: Polarization orbital for state 2p

   izeta = 1
                     rc =    6.790259
                 energy =    0.684082
                kinetic =    1.471481
    potential(screened) =   -0.787399
       potential(ionic) =   -2.406985
atom: Total number of Sankey-type orbitals: 13

atm_pop: Valence configuration (for local Pseudopot. screening):
 2s( 2.00)                                                            
 2p( 1.00)                                                            
Vna: chval, zval:    3.00000   3.00000

Vna:  Cut-off radius for the neutral-atom potential:   6.790259
comcore: Pseudo-core radius Rcore=  2.122997

atom: _________________________________________________________________________

<basis_specs>
===============================================================================
C                    Z=   6    Mass=  12.010        Charge= 0.17977+309
Lmxo=1 Lmxkb= 3    BasisType=split      Semic=F
L=0  Nsemic=0  Cnfigmx=2
          n=1  nzeta=2  polorb=0
            splnorm:   0.15000    
               vcte:    0.0000    
               rinn:    0.0000    
                rcs:    0.0000      0.0000    
            lambdas:    1.0000      1.0000    
L=1  Nsemic=0  Cnfigmx=2
          n=1  nzeta=2  polorb=1
            splnorm:   0.15000    
               vcte:    0.0000    
               rinn:    0.0000    
                rcs:    0.0000      0.0000    
            lambdas:    1.0000      1.0000    
-------------------------------------------------------------------------------
L=0  Nkbl=1  erefs: 0.17977+309
L=1  Nkbl=1  erefs: 0.17977+309
L=2  Nkbl=1  erefs: 0.17977+309
L=3  Nkbl=1  erefs: 0.17977+309
===============================================================================
</basis_specs>

atom: Called for C                     (Z =   6)

read_vps: Pseudopotential generation method:
read_vps: ATM3      Troullier-Martins                       
Total valence charge:    4.00000

read_vps: Pseudopotential includes a core correction:
read_vps: Pseudo-core for xc-correction

xc_check: Exchange-correlation functional:
xc_check: GGA Perdew, Burke & Ernzerhof 1996
V l=0 = -2*Zval/r beyond r=  1.5227
V l=1 = -2*Zval/r beyond r=  1.5227
V l=2 = -2*Zval/r beyond r=  1.5227
V l=3 = -2*Zval/r beyond r=  1.5038
All V_l potentials equal beyond r=  1.5227
This should be close to max(r_c) in ps generation
All pots = -2*Zval/r beyond r=  1.5227

VLOCAL1: 99.0% of the norm of Vloc inside     18.722 Ry
VLOCAL1: 99.9% of the norm of Vloc inside     42.668 Ry
atom: Maximum radius for 4*pi*r*r*local-pseudopot. charge    1.83678
atom: Maximum radius for r*vlocal+2*Zval:    1.58088
GHOST: No ghost state for L =  0
GHOST: No ghost state for L =  1
GHOST: No ghost state for L =  2
GHOST: No ghost state for L =  3

KBgen: Kleinman-Bylander projectors: 
   l= 0   rc=  1.704034   el= -1.009801   Ekb=  5.335044   kbcos=  0.316824
   l= 1   rc=  1.704034   el= -0.388707   Ekb= -3.785862   kbcos= -0.366464
   l= 2   rc=  1.791422   el=  0.001971   Ekb= -0.970471   kbcos= -0.009212
   l= 3   rc=  1.859892   el=  0.003065   Ekb= -0.399525   kbcos= -0.001223

KBgen: Total number of  Kleinman-Bylander projectors:   16
atom: -------------------------------------------------------------------------

atom: SANKEY-TYPE ORBITALS:
atom: Selected multiple-zeta basis: split     

SPLIT: Orbitals with angular momentum L= 0

SPLIT: Basis orbitals for state 2s

SPLIT: PAO cut-off radius determined from an
SPLIT: energy shift=  0.007350 Ry

   izeta = 1
                 lambda =    1.000000
                     rc =    4.632753
                 energy =   -1.002270
                kinetic =    0.855760
    potential(screened) =   -1.858031
       potential(ionic) =   -5.417575

   izeta = 2
                 rmatch =    3.431921
              splitnorm =    0.150000
                 energy =   -0.867111
                kinetic =    1.300804
    potential(screened) =   -2.167915
       potential(ionic) =   -5.962684

SPLIT: Orbitals with angular momentum L= 1

SPLIT: Basis orbitals for state 2p

SPLIT: PAO cut-off radius determined from an
SPLIT: energy shift=  0.007350 Ry

   izeta = 1
                 lambda =    1.000000
                     rc =    5.658549
                 energy =   -0.381140
                kinetic =    2.399701
    potential(screened) =   -2.780841
       potential(ionic) =   -6.206085

   izeta = 2
                 rmatch =    3.653288
              splitnorm =    0.150000
                 energy =   -0.249149
                kinetic =    3.542762
    potential(screened) =   -3.791911
       potential(ionic) =   -7.581078

POLgen: Perturbative polarization orbital with L=  2

POLgen: Polarization orbital for state 2p

   izeta = 1
                     rc =    5.658549
                 energy =    1.109913
                kinetic =    2.304789
    potential(screened) =   -1.194876
       potential(ionic) =   -4.013592
atom: Total number of Sankey-type orbitals: 13

atm_pop: Valence configuration (for local Pseudopot. screening):
 2s( 2.00)                                                            
 2p( 2.00)                                                            
Vna: chval, zval:    4.00000   4.00000

Vna:  Cut-off radius for the neutral-atom potential:   5.658549
comcore: Pseudo-core radius Rcore=  1.791422

atom: _________________________________________________________________________

prinput: Basis input ----------------------------------------------------------

PAO.BasisType split     

%block ChemicalSpeciesLabel
    1    5 B                       # Species index, atomic number, species label
    2    6 C                       # Species index, atomic number, species label
%endblock ChemicalSpeciesLabel

%block PAO.Basis                 # Define Basis set
B                     2                    # Species label, number of l-shells
 n=2   0   2                         # n, l, Nzeta 
   5.422      4.223   
   1.000      1.000   
 n=2   1   2 P   1                   # n, l, Nzeta, Polarization, NzetaPol
   6.790      4.609   
   1.000      1.000   
C                     2                    # Species label, number of l-shells
 n=2   0   2                         # n, l, Nzeta 
   4.633      3.432   
   1.000      1.000   
 n=2   1   2 P   1                   # n, l, Nzeta, Polarization, NzetaPol
   5.659      3.653   
   1.000      1.000   
%endblock PAO.Basis

prinput: ----------------------------------------------------------------------

coor:   Atomic-coordinates input format  =     Fractional

siesta: Atomic coordinates (Bohr) and species
siesta:     -0.02582   5.28395   0.00000  1        1
siesta:      9.28770  26.79272   0.00000  1        2
siesta:     -0.02582  18.72698   0.00000  1        3
siesta:      2.30256  25.44831   0.00000  1        4
siesta:    -11.66772  25.44831   0.00000  1        5
siesta:     -4.68258  26.79272   0.00000  1        6
siesta:     -0.02582  34.85847   0.00000  1        7
siesta:     -0.02582   2.59549   0.00000  2        8
siesta:     -2.35420  38.89134   0.00000  2        9
siesta:     -2.35420  41.57980   0.00000  2       10
siesta:      2.30256  38.89134   0.00000  2       11
siesta:      2.30256  41.57980   0.00000  2       12
siesta:      4.63094  34.85847   0.00000  2       13
siesta:      4.63094  37.54693   0.00000  2       14
siesta:      6.95932  30.82560   0.00000  2       15
siesta:      6.95932  33.51406   0.00000  2       16
siesta:      9.28770  29.48119   0.00000  2       17
siesta:     -4.68258  34.85847   0.00000  2       18
siesta:     -4.68258  37.54693   0.00000  2       19
siesta:      2.30256   6.62836   0.00000  2       20
siesta:      2.30256   9.31683   0.00000  2       21
siesta:      4.63094  10.66124   0.00000  2       22
siesta:      4.63094  13.34970   0.00000  2       23
siesta:      6.95932  14.69411   0.00000  2       24
siesta:      6.95932  17.38257   0.00000  2       25
siesta:      9.28770  18.72698   0.00000  2       26
siesta:      9.28770  21.41544   0.00000  2       27
siesta:     11.61608  22.75985   0.00000  2       28
siesta:     11.61608  25.44831   0.00000  2       29
siesta:     -2.35420   6.62836   0.00000  2       30
siesta:     -2.35420   9.31683   0.00000  2       31
siesta:     -0.02582  10.66124   0.00000  2       32
siesta:     -0.02582  13.34970   0.00000  2       33
siesta:      2.30256  14.69411   0.00000  2       34
siesta:      2.30256  17.38257   0.00000  2       35
siesta:      4.63094  18.72698   0.00000  2       36
siesta:      4.63094  21.41544   0.00000  2       37
siesta:      6.95932  22.75985   0.00000  2       38
siesta:      6.95932  25.44831   0.00000  2       39
siesta:     -4.68258  10.66124   0.00000  2       40
siesta:     -4.68258  13.34970   0.00000  2       41
siesta:     -2.35420  14.69411   0.00000  2       42
siesta:     -2.35420  17.38257   0.00000  2       43
siesta:     -0.02582  21.41544   0.00000  2       44
siesta:      2.30256  22.75985   0.00000  2       45
siesta:     -7.01096  14.69411   0.00000  2       46
siesta:     -7.01096  17.38257   0.00000  2       47
siesta:     -4.68258  18.72698   0.00000  2       48
siesta:     -4.68258  21.41544   0.00000  2       49
siesta:     -2.35420  22.75985   0.00000  2       50
siesta:     -2.35420  25.44831   0.00000  2       51
siesta:     -9.33934  18.72698   0.00000  2       52
siesta:     -9.33934  21.41544   0.00000  2       53
siesta:     -7.01096  22.75985   0.00000  2       54
siesta:     -7.01096  25.44831   0.00000  2       55
siesta:    -11.66772  22.75985   0.00000  2       56
siesta:     -9.33934  26.79272   0.00000  2       57
siesta:     -9.33934  29.48119   0.00000  2       58
siesta:      4.63094  26.79272   0.00000  2       59
siesta:      4.63094  29.48119   0.00000  2       60
siesta:     -0.02582  26.79272   0.00000  2       61
siesta:     -0.02582  29.48119   0.00000  2       62
siesta:     -4.68258  29.48119   0.00000  2       63
siesta:      2.30256  30.82560   0.00000  2       64
siesta:      2.30256  33.51406   0.00000  2       65
siesta:     -2.35420  30.82560   0.00000  2       66
siesta:     -2.35420  33.51406   0.00000  2       67
siesta:     -7.01096  30.82560   0.00000  2       68
siesta:     -7.01096  33.51406   0.00000  2       69
siesta:     -0.02582  37.54693   0.00000  2       70
siesta:     -0.02582  42.92421   0.00000  2       71
siesta:     -0.02582  45.61267   0.00000  2       72

siesta: System type = slab      

initatomlists: Number of atoms, orbitals, and projectors:     72   936  1152

siesta: ******************** Simulation parameters ****************************
siesta:
siesta: The following are some of the parameters of the simulation.
siesta: A complete list of the parameters used, including default values,
siesta: can be found in file out.fdf
siesta:
redata: Non-Collinear-spin run           =     F
redata: SpinPolarized (Up/Down) run      =     F
redata: Number of spin components        =     1
redata: Long output                      =     F
redata: Number of Atomic Species         =        2
redata: Charge density info will appear in .RHO file
redata: Write Mulliken Pop.              =     NO
redata: Mesh Cutoff                      =   200.0000  Ry
redata: Net charge of the system         =     0.0000 |e|
redata: Max. number of SCF Iter          =      500
redata: SCF convergence failure will abort job
redata: Performing Pulay mixing using    =    10 iterations
redata: Mix DM in first SCF step ?       =     F
redata: Write Pulay info on disk?        =     F
redata: Discard 1st Pulay DM after  kick =     F
redata: New DM Mixing Weight             =     0.0500
redata: New DM Occupancy tolerance       = 0.000000000001
redata: No kicks to SCF
redata: DM Mixing Weight for Kicks       =     0.5000
redata: DM Tolerance for SCF             =     0.000100
redata: Require Energy convergence for SCF =     F
redata: DM Energy tolerance for SCF      =     0.000100 eV
redata: Require Harris convergence for SCF =     F
redata: DM Harris energy tolerance for SCF =     0.000100 eV
redata: Using Saved Data (generic)   =     F
redata: Use continuation files for DM    =     T
redata: Neglect nonoverlap interactions  =     F
redata: Method of Calculation            =     Diagonalization
redata: Divide and Conquer               =     T
redata: Electronic Temperature           =     0.0019  Ry
redata: Fix the spin of the system       =     F
redata: Dynamics option                  =     Verlet MD run
redata: Initial MD time step             =        1
redata:   Final MD time step             =        1
redata: Length of MD time step           =     1.0000  fs
redata: Initial Temperature of MD run    =     0.0000  K
redata: Perform a MD quench              =     F
redata: ***********************************************************************
Total number of electrons:   281.000000
Total ionic charge:   281.000000

* ProcessorY, Blocksize:    3  24

k-point displ. along   1 input, could be:     0.50    0.00
k-point displ. along   2 input, could be:     0.50    0.00
 Kpoints in:          231 . Kpoints trimmed:          231

siesta: k-grid: Number of k-points =   231
siesta: k-grid: Cutoff (effective) =     5.000 Ang
siesta: k-grid: Supercell and displacements
siesta: k-grid:   21   0   0      0.500
siesta: k-grid:    0  21   0      0.500
siesta: k-grid:    0   0   1      0.000
Naive supercell factors:     2    2    2

superc: Internal auxiliary supercell:     2 x     2 x     2  =       8
superc: Number of atoms, orbitals, and projectors:    576   7488   9216

* Maximum dynamic memory allocated =     4 MB

siesta:                 ==============================
                            Begin MD step =      1
                        ==============================

superc: Internal auxiliary supercell:     2 x     2 x     2  =       8
superc: Number of atoms, orbitals, and projectors:    576   7488   9216

outcell: Unit cell vectors (Ang):
       12.804619    7.392750    0.000000
        0.000000   14.785500    0.000000
        0.000000    0.000000   10.000000

outcell: Cell vector modules (Ang)   :   14.785500   14.785500   10.000000
outcell: Cell angles (23,13,12) (deg):     90.0000     90.0000     60.0000
outcell: Cell volume (Ang**3)        :   1893.2269
New_DM. Step:     1
Initializing Density Matrix...

InitMesh: MESH =   120 x   120 x    90 =     1296000
InitMesh: Mesh cutoff (required, used) =   200.000   223.865 Ry

* Maximum dynamic memory allocated =   149 MB

stepf: Fermi-Dirac step function

siesta: Program's energy decomposition (eV):
siesta: Ebs     =     -5758.736653
siesta: Eions   =     17506.614093
siesta: Ena     =      4554.868018
siesta: Ekin    =      6009.009694
siesta: Enl     =       689.117262
siesta: DEna    =        -0.000013
siesta: DUscf   =         0.000000
siesta: DUext   =         0.000000
siesta: Exc     =     -4175.727660
siesta: eta*DQ  =         0.000000
siesta: Emadel  =         0.000000
siesta: Emeta   =         0.000000
siesta: Emolmec =         0.000000
siesta: Ekinion =         0.000000
siesta: Eharris =    -10144.435324
siesta: Etot    =    -10429.346791
siesta: FreeEng =    -10429.346791

siesta: iscf   Eharris(eV)      E_KS(eV)   FreeEng(eV)   dDmax  Ef(eV)
siesta:    1   -10144.4353   -10429.3468   -10429.3468  6.1263 -7.9630
timer: Routine,Calls,Time,% = IterSCF        1    3032.702  99.59
elaps: Routine,Calls,Wall,% = IterSCF        1     253.326  99.59
siesta:    2   -13981.7694    -9506.6519    -9506.7299 14.9795 -2.8245
siesta:    3   -10136.8210   -10233.9714   -10233.9963  1.9691 -5.2512
siesta:    4   -10074.1546   -10160.9179   -10160.9783  1.4989 -5.4573
siesta:    5   -10055.5569   -10094.7629   -10094.7878  0.9630 -5.2490
siesta:    6   -10010.4082   -10038.0486   -10038.0641  0.9051 -4.5620
siesta:    7   -10007.5477   -10033.0083   -10033.0406  0.8939 -4.5598
siesta:    8   -10004.1368   -10028.1282   -10028.1589  0.8201 -4.6860
siesta:    9   -10003.9826   -10027.9812   -10028.0446  0.8172 -4.6701
siesta:   10   -10003.6227   -10020.1969   -10020.2755  0.6985 -4.7667
siesta:   11   -10002.2575   -10006.0427   -10006.0800  0.4477 -4.6812
siesta:   12   -10004.4910    -9991.3032    -9991.3733  0.4968 -4.6249
siesta:   13   -10002.8650    -9989.2678    -9989.3621  0.4717 -4.6145
siesta:   14   -10001.4814    -9990.7503    -9990.8205  0.3245 -4.6560
siesta:   15   -10001.0966    -9992.0513    -9992.1355  0.3378 -4.6496
siesta:   16   -10000.8666    -9993.2966    -9993.3700  0.3216 -4.7057
siesta:   17   -10000.5016    -9995.4236    -9995.4780  0.2948 -4.6842
siesta:   18   -10000.3637    -9995.8987    -9995.9696  0.2481 -4.6817
siesta:   19   -10000.3215    -9995.4228    -9995.5059  0.2845 -4.7338
siesta:   20   -10000.0963    -9997.0206    -9997.1007  0.1358 -4.7445
siesta:   21   -10000.0595    -9997.5298    -9997.6257  0.0631 -4.7347
siesta:   22   -10000.0617    -9997.6182    -9997.7235  0.1249 -4.7513
siesta:   23   -10000.0665    -9998.4584    -9998.5569  0.1904 -4.7418
siesta:   24   -10000.0290    -9999.2255    -9999.3201  0.0209 -4.7400
siesta:   25   -10000.0282    -9999.7289    -9999.8332  0.0891 -4.7453
siesta:   26   -10000.0227   -10000.2114   -10000.3167  0.0344 -4.7391
siesta:   27   -10000.0318   -10000.5891   -10000.6973  0.1086 -4.7439
siesta:   28   -10000.0203   -10000.8498   -10000.9525  0.0277 -4.7415
siesta:   29   -10000.0226   -10000.7350   -10000.8409  0.0597 -4.7421
siesta:   30   -10000.0186   -10000.6990   -10000.8037  0.0249 -4.7389
siesta:   31   -10000.0189   -10000.4153   -10000.5219  0.0149 -4.7338
siesta:   32   -10000.0178   -10000.3914   -10000.4974  0.0033 -4.7329
siesta:   33   -10000.0179   -10000.3221   -10000.4288  0.0022 -4.7337
siesta:   34   -10000.0174   -10000.2437   -10000.3502  0.0038 -4.7338
siesta:   35   -10000.0175   -10000.2114   -10000.3183  0.0031 -4.7332
siesta:   36   -10000.0176   -10000.1441   -10000.2509  0.0018 -4.7337
siesta:   37   -10000.0175   -10000.1014   -10000.2081  0.0005 -4.7335
siesta:   38   -10000.0176   -10000.0786   -10000.1853  0.0008 -4.7338
siesta:   39   -10000.0175   -10000.0593   -10000.1660  0.0004 -4.7338
siesta:   40   -10000.0175   -10000.0445   -10000.1512  0.0005 -4.7339
siesta:   41   -10000.0175   -10000.0260   -10000.1329  0.0002 -4.7338
siesta:   42   -10000.0175   -10000.0191   -10000.1259  0.0004 -4.7339
siesta:   43   -10000.0175   -10000.0171   -10000.1239  0.0001 -4.7339
siesta:   44   -10000.0175   -10000.0164   -10000.1231  0.0001 -4.7339

siesta: E_KS(eV) =           -10000.0177

siesta: E_KS - E_eggbox =    -10000.0177

siesta: Atomic forces (eV/Ang):
----------------------------------------
   Tot   -0.183788    0.050630    0.000000
----------------------------------------
   Max  568.209940
   Res  157.474003    sqrt( Sum f_i^2 / 3N )
----------------------------------------
   Max  568.209940    constrained

Stress-tensor-Voigt (kbar):     -717.16    -2754.11       -0.35       -3.22        0.00        0.00
(Free)E + p*V (eV/cell)    -8632.7150
Target enthalpy (eV/cell)   -10000.1245

siesta: Stress tensor (static) (eV/Ang**3):
        -0.447612   -0.002009    0.000000
        -0.002009   -1.718961    0.000000
         0.000000    0.000000   -0.000219

siesta: Pressure (static):       1157.20690343  kBar

siesta: Stress tensor (total) (eV/Ang**3):
        -0.447612   -0.002009    0.000000
        -0.002009   -1.718961    0.000000
         0.000000    0.000000   -0.000219

siesta: Pressure (total):       1157.20690343  kBar

siesta: Temp_ion =       0.000 K

* Maximum dynamic memory allocated =   163 MB
Computing bands...

siesta: Program's energy decomposition (eV):
siesta: Ebs     =     -4466.735823
siesta: Eions   =     17506.614093
siesta: Ena     =      4554.868018
siesta: Ekin    =      8927.290005
siesta: Enl     =      -964.515034
siesta: DEna    =      -767.877308
siesta: DUscf   =       100.408541
siesta: DUext   =         0.000000
siesta: Exc     =     -4343.577838
siesta: eta*DQ  =         0.000000
siesta: Emadel  =         0.000000
siesta: Emeta   =         0.000000
siesta: Emolmec =         0.000000
siesta: Ekinion =         0.000000
siesta: Eharris =    -10000.017505
siesta: Etot    =    -10000.017709
siesta: FreeEng =    -10000.124502

siesta: Final energy (eV):
siesta:  Band Struct. =   -4466.735823
siesta:       Kinetic =    8927.290005
siesta:       Hartree =   29185.901630
siesta:    Ext. field =       0.000000
siesta:   Exch.-corr. =   -4343.577838
siesta:  Ion-electron =  -67019.228288
siesta:       Ion-ion =   23249.596781
siesta:       Ekinion =       0.000000
siesta:         Total =  -10000.017709

siesta: Atomic forces (eV/Ang):
siesta:      1   -0.573848 -112.898307    0.000000
siesta:      2    3.624398    1.652879    0.000000
siesta:      3   -0.125749  411.360201    0.000000
siesta:      4   -0.616515    0.642683    0.000000
siesta:      5   -2.158576   -2.122528    0.000000
siesta:      6   -0.330260   -0.111657    0.000000
siesta:      7   -0.431225  113.299227    0.000000
siesta:      8    0.966528  552.621827    0.000000
siesta:      9    1.983846  128.439830    0.000000
siesta:     10  -17.389533 -549.291556    0.000000
siesta:     11   -2.150351  128.742277    0.000000
siesta:     12   17.246797 -549.570267    0.000000
siesta:     13   26.885001    4.934152    0.000000
siesta:     14   32.494808 -548.324345    0.000000
siesta:     15    2.556807    0.939042    0.000000
siesta:     16   -2.581515    2.111443    0.000000
siesta:     17   -2.301219    4.095906    0.000000
siesta:     18  -26.957622    4.605301    0.000000
siesta:     19  -32.544037 -548.245221    0.000000
siesta:     20   12.675132  548.356532    0.000000
siesta:     21   -3.188070 -130.622834    0.000000
siesta:     22   33.939932  548.414002    0.000000
siesta:     23   26.356191   -5.637772    0.000000
siesta:     24   -2.165572   -1.917553    0.000000
siesta:     25    1.892737   -0.231467    0.000000
siesta:     26   -1.076991   -0.483000    0.000000
siesta:     27    2.699041   -1.770558    0.000000
siesta:     28   -0.209142    7.102478    0.000000
siesta:     29    2.585607   -9.507224    0.000000
siesta:     30  -12.450166  546.969700    0.000000
siesta:     31    3.096935 -130.553736    0.000000
siesta:     32    0.077764  554.273768    0.000000
siesta:     33    0.225214 -130.774564    0.000000
siesta:     34   22.380673  558.054842    0.000000
siesta:     35   22.616056   -2.934766    0.000000
siesta:     36   -1.103709    1.600070    0.000000
siesta:     37    0.433421   -0.498398    0.000000
siesta:     38   -0.969674    0.328160    0.000000
siesta:     39   -3.269643   -1.379841    0.000000
siesta:     40  -33.536308  548.137939    0.000000
siesta:     41  -26.538605   -4.929135    0.000000
siesta:     42  -22.641226  558.164495    0.000000
siesta:     43  -22.500055   -3.020061    0.000000
siesta:     44    0.160725    2.679317    0.000000
siesta:     45   -1.263154   -3.418645    0.000000
siesta:     46    2.629217   -2.128293    0.000000
siesta:     47   -2.089674   -0.153560    0.000000
siesta:     48    1.129918    2.131473    0.000000
siesta:     49   -0.897233   -0.324068    0.000000
siesta:     50    1.741780    0.041205    0.000000
siesta:     51    3.509254   -0.843550    0.000000
siesta:     52    1.031689   -1.181045    0.000000
siesta:     53   -3.658987   -0.740307    0.000000
siesta:     54    0.746962    0.692667    0.000000
siesta:     55   -2.231710   -2.010203    0.000000
siesta:     56    0.219437   -0.174825    0.000000
siesta:     57    0.251492    3.417419    0.000000
siesta:     58    0.807838   -0.493307    0.000000
siesta:     59    3.105215    1.799805    0.000000
siesta:     60   -0.096565   -2.469053    0.000000
siesta:     61   -2.665306    0.116471    0.000000
siesta:     62   -1.389904 -568.209940    0.000000
siesta:     63    0.450999    1.768830    0.000000
siesta:     64   19.227862    7.843434    0.000000
siesta:     65   19.562016 -557.018912    0.000000
siesta:     66  -19.713140    7.590001    0.000000
siesta:     67  -18.852464 -555.414013    0.000000
siesta:     68   -1.424642    1.133990    0.000000
siesta:     69    2.564385    1.987843    0.000000
siesta:     70   -0.144481 -548.787891    0.000000
siesta:     71    0.166886  127.488356    0.000000
siesta:     72    0.010519 -405.294534    0.000000
siesta: ----------------------------------------
siesta:    Tot   -0.183788    0.050630    0.000000

siesta: Stress tensor (static) (eV/Ang**3):
siesta:    -0.447612   -0.002009    0.000000
siesta:    -0.002009   -1.718961    0.000000
siesta:     0.000000    0.000000   -0.000219

siesta: Cell volume =       1893.226884 Ang**3

siesta: Pressure (static):
siesta:                Solid            Molecule  Units
siesta:           0.00786638          0.12208691  Ry/Bohr**3
siesta:           0.72226393         11.20960483  eV/Ang**3
siesta:        1157.20690343      17959.96105880  kBar
(Free)E+ p_basis*V_orbitals  =       -9967.175210
(Free)Eharris+ p_basis*V_orbitals  =       -9967.176364

siesta: Electric dipole (a.u.)  =    0.000000    0.000000    0.000000
siesta: Electric dipole (Debye) =    0.000000    0.000000    0.000000

* Maximum dynamic memory allocated : Node    0 =   163 MB
* Maximum dynamic memory allocated : Node    1 =    65 MB
* Maximum dynamic memory allocated : Node    2 =    66 MB
* Maximum dynamic memory allocated : Node    3 =   149 MB
* Maximum dynamic memory allocated : Node    4 =   157 MB
* Maximum dynamic memory allocated : Node    5 =    58 MB
* Maximum dynamic memory allocated : Node    6 =    59 MB
* Maximum dynamic memory allocated : Node    7 =   149 MB
* Maximum dynamic memory allocated : Node    8 =   144 MB
* Maximum dynamic memory allocated : Node    9 =    59 MB
* Maximum dynamic memory allocated : Node   10 =    60 MB
* Maximum dynamic memory allocated : Node   11 =   138 MB

* Maximum memory occured during matrixMtoO                    

timer: CPU execution times:
timer:  Routine       Calls   Time/call    Tot.time        %
timer:  siesta            1  129863.422  129863.422   100.00
timer:  Setup             1       3.319       3.319     0.00
timer:  bands             3     225.559     676.676     0.52
timer:  writewave         1       0.022       0.022     0.00
timer:  KSV_init          1       0.003       0.003     0.00
timer:  IterMD            1  129176.424  129176.424    99.47
timer:  hsparse           1       0.284       0.284     0.00
timer:  overlap           1       5.764       5.764     0.00
timer:  IterSCF          44    2932.594  129034.117    99.36
timer:  kinefsm           2       2.940       5.880     0.00
timer:  nlefsm            2      19.850      39.701     0.03
timer:  DHSCF            45      74.112    3335.061     2.57
timer:  DHSCF1            1       1.189       1.189     0.00
timer:  DHSCF2            1      31.612      31.612     0.02
timer:  REORD           362       0.002       0.771     0.00
timer:  POISON           46       0.453      20.845     0.02
timer:  DHSCF3           45      72.811    3276.481     2.52
timer:  rhoofd           45      15.285     687.818     0.53
timer:  cellXC           45       2.442     109.888     0.08
timer:  vmat             45      35.933    1616.970     1.25
timer:  MolMec            2       0.000       0.000     0.00
timer:  diagon           44    2857.314  125721.814    96.81
timer:  c-eigval      10285       5.573   57313.819    44.13
timer:  c-buildHS     10285       0.035     360.757     0.28
timer:  cdiag         20449       5.671  115972.737    89.30
timer:  cdiag1        20449       0.261    5343.117     4.11
timer:  cdiag2        20449       1.834   37495.808    28.87
timer:  cdiag3        20449       3.368   68866.217    53.03
timer:  cdiag4        20449       0.088    1805.092     1.39
timer:  c-eigvec      10164       5.837   59323.024    45.68
timer:  c-buildD      10164       0.955    9705.395     7.47
timer:  DHSCF4            1      25.476      25.476     0.02
timer:  dfscf             1      23.423      23.423     0.02
timer:  overfsm           1       0.311       0.311     0.00
timer:  optical           1       6.397       6.397     0.00
  

elaps: ELAPSED times:
elaps:  Routine       Calls   Time/call    Tot.time        %
elaps:  siesta            1   10847.364   10847.364   100.00
elaps:  Setup             1       0.283       0.283     0.00
elaps:  bands             3      18.856      56.569     0.52
elaps:  writewave         1       0.002       0.002     0.00
elaps:  KSV_init          1       0.000       0.000     0.00
elaps:  IterMD            1   10789.973   10789.973    99.47
elaps:  hsparse           1       0.027       0.027     0.00
elaps:  overlap           1       0.714       0.714     0.01
elaps:  IterSCF          44     244.957   10778.086    99.36
elaps:  kinefsm           2       0.365       0.730     0.01
elaps:  nlefsm            2       1.794       3.587     0.03
elaps:  DHSCF            45       6.237     280.686     2.59
elaps:  DHSCF1            1       0.102       0.102     0.00
elaps:  DHSCF2            1       2.638       2.638     0.02
elaps:  REORD           362       0.000       0.106     0.00
elaps:  POISON           46       0.038       1.761     0.02
elaps:  DHSCF3           45       6.083     273.749     2.52
elaps:  rhoofd           45       2.743     123.431     1.14
elaps:  cellXC           45       0.203       9.156     0.08
elaps:  vmat             45       3.003     135.126     1.25
elaps:  MolMec            2       0.000       0.000     0.00
elaps:  diagon           44     238.675   10501.698    96.81
elaps:  c-eigval      10285       0.465    4787.281    44.13
elaps:  c-buildHS     10285       0.004      38.260     0.35
elaps:  cdiag         20449       0.469    9585.128    88.36
elaps:  cdiag1        20449       0.021     439.334     4.05
elaps:  cdiag2        20449       0.153    3134.870    28.90
elaps:  cdiag3        20449       0.282    5760.916    53.11
elaps:  cdiag4        20449       0.007     144.010     1.33
elaps:  c-eigvec      10164       0.479    4868.983    44.89
elaps:  c-buildD      10164       0.088     896.554     8.27
elaps:  DHSCF4            1       4.153       4.153     0.04
elaps:  dfscf             1       3.900       3.900     0.04
elaps:  overfsm           1       0.033       0.033     0.00
elaps:  optical           1       0.000       0.000     0.00
  
>> End of run:   4-MAY-2016  12:36:47
