Siesta Version:                                        siesta-3.2-pl-3
Architecture  : x86_64-unknown-linux-gnu--unknown
Compiler flags: mpiifort -g -O2 -fPIC -xSSE4.1 -fp-model source -shared-intel 
PARALLEL version

* Running on    8 nodes in parallel
>> Start of run:  21-APR-2016   9:16:14

                           ***********************       
                           *  WELCOME TO SIESTA  *       
                           ***********************       

reinit: Reading from standard input
************************** Dump of input data file ****************************
#(1) General system descriptors
SystemName            GRP_doping    # Descriptive name of the system
SystemLabel           GRP_doping    # Short name for naming files
%include STRUCT.fdf
%include KPT.fdf
%include BASIS.fdf
#%include TS.fdf # for transiesta calculation
#(4) DFT, Grid, SCF
XC.functional         GGA           # LDA or GGA (default = LDA)
XC.authors            PBE           # CA (Ceperley-Aldr) = PZ
                                    #    (Perdew-Zunger) - LDA - Default
                                    # PW92 (Perdew-Wang-92) - LDA
                                    # PBE (Perdew-Burke-Ernzerhof) - GGA
MeshCutoff            200.000000    Ry      # Default: 50.0 Ry ~ 0.444 Bohr
                                    #         100.0 Ry ~ 0.314 Bohr
MaxSCFIterations      500           # Default: 50
DM.MixingWeight       0.05          # Default: 0.25
DM.NumberPulay        10            # Default: 0
DM.PulayOnFile        F             # SystemLabel.P1, SystemLabel.P2
DM.Tolerance          1.d-4         # Default: 1.d-4
DM.UseSaveDM          .true.        # because of the bug
SCFMustConverge       .true.
NeglNonOverlapInt     F             # Default: F
#(5) Eigenvalue problem: order-N or diagonalization
SolutionMethod        Diagon        # or Transiesta
ElectronicTemperature 300.0 K       # Default: 300.0 K
#(6) Molecular dynamics and relaxations
#MD.TypeOfRun          CG            # Type of dynamics:
#MD.VariableCell       F
#MD.NumCGsteps         0           # 0 for single-point / 100 for gopt
#MD.MaxCGDispl         0.2 Bohr      # Default: 0.2 Bohr
#MD.MaxForceTol        0.02 eV/Ang   # Default: 0.04 eV/Ang
#MD.MaxStressTol       1.0 GPa       # Default: 1.0 GPa
# Geometry Constraints
#%block GeometryConstraints
#	position from 1 to 44
#%endblock GeometryConstraints
BandLinesScale   pi/a
%block BandLines
 1   0.00000000  0.00000000  0.00000000
50   0.00000000  0.07809418  0.00000000
50   0.04509075  0.07809242  0.00000000
20   0.00000000  0.00000000  0.00000000
%endblock BandLines
************************** End of input data file *****************************

reinit: -----------------------------------------------------------------------
reinit: System Name: GRP_doping
reinit: -----------------------------------------------------------------------
reinit: System Label: GRP_doping                                                  
reinit: -----------------------------------------------------------------------

initatom: Reading input for the pseudopotentials and atomic orbitals ----------
 Species number:            1  Label: B Atomic number:           5
 Species number:            2  Label: C Atomic number:           6
Ground state valence configuration:   2s02  2p01
Reading pseudopotential information in formatted form from B.psf

Valence configuration for pseudopotential generation:
2s( 2.00) rc: 1.74
2p( 1.00) rc: 1.74
3d( 0.00) rc: 1.74
4f( 0.00) rc: 1.74
Ground state valence configuration:   2s02  2p02
Reading pseudopotential information in formatted form from C.psf

Valence configuration for pseudopotential generation:
2s( 2.00) rc: 1.54
2p( 2.00) rc: 1.54
3d( 0.00) rc: 1.54
4f( 0.00) rc: 1.54
For B, standard SIESTA heuristics set lmxkb to 3
 (one more than the basis l, including polarization orbitals).
Use PS.lmax or PS.KBprojectors blocks to override.
For C, standard SIESTA heuristics set lmxkb to 3
 (one more than the basis l, including polarization orbitals).
Use PS.lmax or PS.KBprojectors blocks to override.

<basis_specs>
===============================================================================
B                    Z=   5    Mass=  10.810        Charge= 0.17977+309
Lmxo=1 Lmxkb= 3    BasisType=split      Semic=F
L=0  Nsemic=0  Cnfigmx=2
          n=1  nzeta=2  polorb=0
            splnorm:   0.15000    
               vcte:    0.0000    
               rinn:    0.0000    
                rcs:    0.0000      0.0000    
            lambdas:    1.0000      1.0000    
L=1  Nsemic=0  Cnfigmx=2
          n=1  nzeta=2  polorb=1
            splnorm:   0.15000    
               vcte:    0.0000    
               rinn:    0.0000    
                rcs:    0.0000      0.0000    
            lambdas:    1.0000      1.0000    
-------------------------------------------------------------------------------
L=0  Nkbl=1  erefs: 0.17977+309
L=1  Nkbl=1  erefs: 0.17977+309
L=2  Nkbl=1  erefs: 0.17977+309
L=3  Nkbl=1  erefs: 0.17977+309
===============================================================================
</basis_specs>

atom: Called for B                     (Z =   5)

read_vps: Pseudopotential generation method:
read_vps: ATM3      Troullier-Martins                       
Total valence charge:    3.00000

read_vps: Pseudopotential includes a core correction:
read_vps: Pseudo-core for xc-correction

xc_check: Exchange-correlation functional:
xc_check: GGA Perdew, Burke & Ernzerhof 1996
V l=0 = -2*Zval/r beyond r=  1.7165
V l=1 = -2*Zval/r beyond r=  1.7165
V l=2 = -2*Zval/r beyond r=  1.7165
V l=3 = -2*Zval/r beyond r=  1.6951
All V_l potentials equal beyond r=  1.7165
This should be close to max(r_c) in ps generation
All pots = -2*Zval/r beyond r=  1.7165

VLOCAL1: 99.0% of the norm of Vloc inside     14.733 Ry
VLOCAL1: 99.9% of the norm of Vloc inside     33.577 Ry
atom: Maximum radius for 4*pi*r*r*local-pseudopot. charge    2.04484
atom: Maximum radius for r*vlocal+2*Zval:    1.75994
GHOST: No ghost state for L =  0
GHOST: No ghost state for L =  1
GHOST: No ghost state for L =  2
GHOST: No ghost state for L =  3

KBgen: Kleinman-Bylander projectors: 
   l= 0   rc=  1.897051   el= -0.693730   Ekb=  4.595746   kbcos=  0.286105
   l= 1   rc=  1.920920   el= -0.265236   Ekb= -2.350715   kbcos= -0.315747
   l= 2   rc=  2.044840   el=  0.002055   Ekb= -0.690767   kbcos= -0.013822
   l= 3   rc=  2.149707   el=  0.003188   Ekb= -0.315358   kbcos= -0.002055

KBgen: Total number of  Kleinman-Bylander projectors:   16
atom: -------------------------------------------------------------------------

atom: SANKEY-TYPE ORBITALS:
atom: Selected multiple-zeta basis: split     

SPLIT: Orbitals with angular momentum L= 0

SPLIT: Basis orbitals for state 2s

SPLIT: PAO cut-off radius determined from an
SPLIT: energy shift=  0.007350 Ry

   izeta = 1
                 lambda =    1.000000
                     rc =    5.422032
                 energy =   -0.686029
                kinetic =    0.576707
    potential(screened) =   -1.262736
       potential(ionic) =   -3.271094

   izeta = 2
                 rmatch =    4.222573
              splitnorm =    0.150000
                 energy =   -0.602132
                kinetic =    0.858975
    potential(screened) =   -1.461107
       potential(ionic) =   -3.582536

SPLIT: Orbitals with angular momentum L= 1

SPLIT: Basis orbitals for state 2p

SPLIT: PAO cut-off radius determined from an
SPLIT: energy shift=  0.007350 Ry

   izeta = 1
                 lambda =    1.000000
                     rc =    6.790259
                 energy =   -0.258578
                kinetic =    1.481412
    potential(screened) =   -1.739989
       potential(ionic) =   -3.657461

   izeta = 2
                 rmatch =    4.608740
              splitnorm =    0.150000
                 energy =   -0.173757
                kinetic =    2.186690
    potential(screened) =   -2.360447
       potential(ionic) =   -4.464260

POLgen: Perturbative polarization orbital with L=  2

POLgen: Polarization orbital for state 2p

   izeta = 1
                     rc =    6.790259
                 energy =    0.684082
                kinetic =    1.471481
    potential(screened) =   -0.787399
       potential(ionic) =   -2.406985
atom: Total number of Sankey-type orbitals: 13

atm_pop: Valence configuration (for local Pseudopot. screening):
 2s( 2.00)                                                            
 2p( 1.00)                                                            
Vna: chval, zval:    3.00000   3.00000

Vna:  Cut-off radius for the neutral-atom potential:   6.790259
comcore: Pseudo-core radius Rcore=  2.122997

atom: _________________________________________________________________________

<basis_specs>
===============================================================================
C                    Z=   6    Mass=  12.010        Charge= 0.17977+309
Lmxo=1 Lmxkb= 3    BasisType=split      Semic=F
L=0  Nsemic=0  Cnfigmx=2
          n=1  nzeta=2  polorb=0
            splnorm:   0.15000    
               vcte:    0.0000    
               rinn:    0.0000    
                rcs:    0.0000      0.0000    
            lambdas:    1.0000      1.0000    
L=1  Nsemic=0  Cnfigmx=2
          n=1  nzeta=2  polorb=1
            splnorm:   0.15000    
               vcte:    0.0000    
               rinn:    0.0000    
                rcs:    0.0000      0.0000    
            lambdas:    1.0000      1.0000    
-------------------------------------------------------------------------------
L=0  Nkbl=1  erefs: 0.17977+309
L=1  Nkbl=1  erefs: 0.17977+309
L=2  Nkbl=1  erefs: 0.17977+309
L=3  Nkbl=1  erefs: 0.17977+309
===============================================================================
</basis_specs>

atom: Called for C                     (Z =   6)

read_vps: Pseudopotential generation method:
read_vps: ATM3      Troullier-Martins                       
Total valence charge:    4.00000

read_vps: Pseudopotential includes a core correction:
read_vps: Pseudo-core for xc-correction

xc_check: Exchange-correlation functional:
xc_check: GGA Perdew, Burke & Ernzerhof 1996
V l=0 = -2*Zval/r beyond r=  1.5227
V l=1 = -2*Zval/r beyond r=  1.5227
V l=2 = -2*Zval/r beyond r=  1.5227
V l=3 = -2*Zval/r beyond r=  1.5038
All V_l potentials equal beyond r=  1.5227
This should be close to max(r_c) in ps generation
All pots = -2*Zval/r beyond r=  1.5227

VLOCAL1: 99.0% of the norm of Vloc inside     18.722 Ry
VLOCAL1: 99.9% of the norm of Vloc inside     42.668 Ry
atom: Maximum radius for 4*pi*r*r*local-pseudopot. charge    1.83678
atom: Maximum radius for r*vlocal+2*Zval:    1.58088
GHOST: No ghost state for L =  0
GHOST: No ghost state for L =  1
GHOST: No ghost state for L =  2
GHOST: No ghost state for L =  3

KBgen: Kleinman-Bylander projectors: 
   l= 0   rc=  1.704034   el= -1.009801   Ekb=  5.335044   kbcos=  0.316824
   l= 1   rc=  1.704034   el= -0.388707   Ekb= -3.785862   kbcos= -0.366464
   l= 2   rc=  1.791422   el=  0.001971   Ekb= -0.970471   kbcos= -0.009212
   l= 3   rc=  1.859892   el=  0.003065   Ekb= -0.399525   kbcos= -0.001223

KBgen: Total number of  Kleinman-Bylander projectors:   16
atom: -------------------------------------------------------------------------

atom: SANKEY-TYPE ORBITALS:
atom: Selected multiple-zeta basis: split     

SPLIT: Orbitals with angular momentum L= 0

SPLIT: Basis orbitals for state 2s

SPLIT: PAO cut-off radius determined from an
SPLIT: energy shift=  0.007350 Ry

   izeta = 1
                 lambda =    1.000000
                     rc =    4.632753
                 energy =   -1.002270
                kinetic =    0.855760
    potential(screened) =   -1.858031
       potential(ionic) =   -5.417575

   izeta = 2
                 rmatch =    3.431921
              splitnorm =    0.150000
                 energy =   -0.867111
                kinetic =    1.300804
    potential(screened) =   -2.167915
       potential(ionic) =   -5.962684

SPLIT: Orbitals with angular momentum L= 1

SPLIT: Basis orbitals for state 2p

SPLIT: PAO cut-off radius determined from an
SPLIT: energy shift=  0.007350 Ry

   izeta = 1
                 lambda =    1.000000
                     rc =    5.658549
                 energy =   -0.381140
                kinetic =    2.399701
    potential(screened) =   -2.780841
       potential(ionic) =   -6.206085

   izeta = 2
                 rmatch =    3.653288
              splitnorm =    0.150000
                 energy =   -0.249149
                kinetic =    3.542762
    potential(screened) =   -3.791911
       potential(ionic) =   -7.581078

POLgen: Perturbative polarization orbital with L=  2

POLgen: Polarization orbital for state 2p

   izeta = 1
                     rc =    5.658549
                 energy =    1.109913
                kinetic =    2.304789
    potential(screened) =   -1.194876
       potential(ionic) =   -4.013592
atom: Total number of Sankey-type orbitals: 13

atm_pop: Valence configuration (for local Pseudopot. screening):
 2s( 2.00)                                                            
 2p( 2.00)                                                            
Vna: chval, zval:    4.00000   4.00000

Vna:  Cut-off radius for the neutral-atom potential:   5.658549
comcore: Pseudo-core radius Rcore=  1.791422

atom: _________________________________________________________________________

prinput: Basis input ----------------------------------------------------------

PAO.BasisType split     

%block ChemicalSpeciesLabel
    1    5 B                       # Species index, atomic number, species label
    2    6 C                       # Species index, atomic number, species label
%endblock ChemicalSpeciesLabel

%block PAO.Basis                 # Define Basis set
B                     2                    # Species label, number of l-shells
 n=2   0   2                         # n, l, Nzeta 
   5.422      4.223   
   1.000      1.000   
 n=2   1   2 P   1                   # n, l, Nzeta, Polarization, NzetaPol
   6.790      4.609   
   1.000      1.000   
C                     2                    # Species label, number of l-shells
 n=2   0   2                         # n, l, Nzeta 
   4.633      3.432   
   1.000      1.000   
 n=2   1   2 P   1                   # n, l, Nzeta, Polarization, NzetaPol
   5.659      3.653   
   1.000      1.000   
%endblock PAO.Basis

prinput: ----------------------------------------------------------------------

coor:   Atomic-coordinates input format  =     Fractional

siesta: Atomic coordinates (Bohr) and species
siesta:     -2.35420  38.89134   0.00000  1        1
siesta:     -2.35420  41.57980   0.00000  1        2
siesta:      2.30256  38.89134   0.00000  1        3
siesta:      2.30256  41.57980   0.00000  1        4
siesta:     -4.68258  34.85847   0.00000  1        5
siesta:     -4.68258  37.54693   0.00000  1        6
siesta:      4.63094  18.72698   0.00000  1        7
siesta:     -9.33934  18.72698   0.00000  1        8
siesta:     -9.33934  21.41544   0.00000  1        9
siesta:     -7.01096  22.75985   0.00000  1       10
siesta:     -7.01096  25.44831   0.00000  1       11
siesta:    -11.66772  22.75985   0.00000  1       12
siesta:    -11.66772  25.44831   0.00000  1       13
siesta:     -9.33934  26.79272   0.00000  1       14
siesta:     -9.33934  29.48119   0.00000  1       15
siesta:     -4.68258  26.79272   0.00000  1       16
siesta:     -4.68258  29.48119   0.00000  1       17
siesta:     -2.35420  30.82560   0.00000  1       18
siesta:     -2.35420  33.51406   0.00000  1       19
siesta:     -7.01096  30.82560   0.00000  1       20
siesta:     -7.01096  33.51406   0.00000  1       21
siesta:     -0.02582  34.85847   0.00000  1       22
siesta:     -0.02582  37.54693   0.00000  1       23
siesta:     -0.02582  42.92421   0.00000  1       24
siesta:     -0.02582  45.61267   0.00000  1       25
siesta:     -0.02582   2.59549   0.00000  2       26
siesta:     -0.02582   5.28395   0.00000  2       27
siesta:      4.63094  34.85847   0.00000  2       28
siesta:      4.63094  37.54693   0.00000  2       29
siesta:      6.95932  30.82560   0.00000  2       30
siesta:      6.95932  33.51406   0.00000  2       31
siesta:      9.28770  26.79272   0.00000  2       32
siesta:      9.28770  29.48119   0.00000  2       33
siesta:      2.30256   6.62836   0.00000  2       34
siesta:      2.30256   9.31683   0.00000  2       35
siesta:      4.63094  10.66124   0.00000  2       36
siesta:      4.63094  13.34970   0.00000  2       37
siesta:      6.95932  14.69411   0.00000  2       38
siesta:      6.95932  17.38257   0.00000  2       39
siesta:      9.28770  18.72698   0.00000  2       40
siesta:      9.28770  21.41544   0.00000  2       41
siesta:     11.61608  22.75985   0.00000  2       42
siesta:     11.61608  25.44831   0.00000  2       43
siesta:     -2.35420   6.62836   0.00000  2       44
siesta:     -2.35420   9.31683   0.00000  2       45
siesta:     -0.02582  10.66124   0.00000  2       46
siesta:     -0.02582  13.34970   0.00000  2       47
siesta:      2.30256  14.69411   0.00000  2       48
siesta:      2.30256  17.38257   0.00000  2       49
siesta:      4.63094  21.41544   0.00000  2       50
siesta:      6.95932  22.75985   0.00000  2       51
siesta:      6.95932  25.44831   0.00000  2       52
siesta:     -4.68258  10.66124   0.00000  2       53
siesta:     -4.68258  13.34970   0.00000  2       54
siesta:     -2.35420  14.69411   0.00000  2       55
siesta:     -2.35420  17.38257   0.00000  2       56
siesta:     -0.02582  18.72698   0.00000  2       57
siesta:     -0.02582  21.41544   0.00000  2       58
siesta:      2.30256  22.75985   0.00000  2       59
siesta:      2.30256  25.44831   0.00000  2       60
siesta:     -7.01096  14.69411   0.00000  2       61
siesta:     -7.01096  17.38257   0.00000  2       62
siesta:     -4.68258  18.72698   0.00000  2       63
siesta:     -4.68258  21.41544   0.00000  2       64
siesta:     -2.35420  22.75985   0.00000  2       65
siesta:     -2.35420  25.44831   0.00000  2       66
siesta:      4.63094  26.79272   0.00000  2       67
siesta:      4.63094  29.48119   0.00000  2       68
siesta:     -0.02582  26.79272   0.00000  2       69
siesta:     -0.02582  29.48119   0.00000  2       70
siesta:      2.30256  30.82560   0.00000  2       71
siesta:      2.30256  33.51406   0.00000  2       72

siesta: System type = slab      

initatomlists: Number of atoms, orbitals, and projectors:     72   936  1152

siesta: ******************** Simulation parameters ****************************
siesta:
siesta: The following are some of the parameters of the simulation.
siesta: A complete list of the parameters used, including default values,
siesta: can be found in file out.fdf
siesta:
redata: Non-Collinear-spin run           =     F
redata: SpinPolarized (Up/Down) run      =     F
redata: Number of spin components        =     1
redata: Long output                      =     F
redata: Number of Atomic Species         =        2
redata: Charge density info will appear in .RHO file
redata: Write Mulliken Pop.              =     NO
redata: Mesh Cutoff                      =   200.0000  Ry
redata: Net charge of the system         =     0.0000 |e|
redata: Max. number of SCF Iter          =      500
redata: SCF convergence failure will abort job
redata: Performing Pulay mixing using    =    10 iterations
redata: Mix DM in first SCF step ?       =     F
redata: Write Pulay info on disk?        =     F
redata: Discard 1st Pulay DM after  kick =     F
redata: New DM Mixing Weight             =     0.0500
redata: New DM Occupancy tolerance       = 0.000000000001
redata: No kicks to SCF
redata: DM Mixing Weight for Kicks       =     0.5000
redata: DM Tolerance for SCF             =     0.000100
redata: Require Energy convergence for SCF =     F
redata: DM Energy tolerance for SCF      =     0.000100 eV
redata: Require Harris convergence for SCF =     F
redata: DM Harris energy tolerance for SCF =     0.000100 eV
redata: Using Saved Data (generic)   =     F
redata: Use continuation files for DM    =     T
redata: Neglect nonoverlap interactions  =     F
redata: Method of Calculation            =     Diagonalization
redata: Divide and Conquer               =     T
redata: Electronic Temperature           =     0.0019  Ry
redata: Fix the spin of the system       =     F
redata: Dynamics option                  =     Verlet MD run
redata: Initial MD time step             =        1
redata:   Final MD time step             =        1
redata: Length of MD time step           =     1.0000  fs
redata: Initial Temperature of MD run    =     0.0000  K
redata: Perform a MD quench              =     F
redata: ***********************************************************************
Total number of electrons:   263.000000
Total ionic charge:   263.000000

* ProcessorY, Blocksize:    2  24

k-point displ. along   1 input, could be:     0.50    0.00
k-point displ. along   2 input, could be:     0.50    0.00
 Kpoints in:          231 . Kpoints trimmed:          231

siesta: k-grid: Number of k-points =   231
siesta: k-grid: Cutoff (effective) =     5.000 Ang
siesta: k-grid: Supercell and displacements
siesta: k-grid:   21   0   0      0.500
siesta: k-grid:    0  21   0      0.500
siesta: k-grid:    0   0   1      0.000
Naive supercell factors:     2    2    2

superc: Internal auxiliary supercell:     2 x     2 x     2  =       8
superc: Number of atoms, orbitals, and projectors:    576   7488   9216

* Maximum dynamic memory allocated =     4 MB

siesta:                 ==============================
                            Begin MD step =      1
                        ==============================

superc: Internal auxiliary supercell:     2 x     2 x     2  =       8
superc: Number of atoms, orbitals, and projectors:    576   7488   9216

outcell: Unit cell vectors (Ang):
       12.804619    7.392750    0.000000
        0.000000   14.785500    0.000000
        0.000000    0.000000   10.000000

outcell: Cell vector modules (Ang)   :   14.785500   14.785500   10.000000
outcell: Cell angles (23,13,12) (deg):     90.0000     90.0000     60.0000
outcell: Cell volume (Ang**3)        :   1893.2269
New_DM. Step:     1
Initializing Density Matrix...

InitMesh: MESH =   120 x   120 x    90 =     1296000
InitMesh: Mesh cutoff (required, used) =   200.000   223.865 Ry

* Maximum dynamic memory allocated =   240 MB

stepf: Fermi-Dirac step function

siesta: Program's energy decomposition (eV):
siesta: Ebs     =     -5423.027400
siesta: Eions   =     15201.593291
siesta: Ena     =      4125.859057
siesta: Ekin    =      5059.728642
siesta: Enl     =       861.758752
siesta: DEna    =        -0.000006
siesta: DUscf   =         0.000000
siesta: DUext   =         0.000000
siesta: Exc     =     -4198.679363
siesta: eta*DQ  =         0.000000
siesta: Emadel  =         0.000000
siesta: Emeta   =         0.000000
siesta: Emolmec =         0.000000
siesta: Ekinion =         0.000000
siesta: Eharris =     -9190.622496
siesta: Etot    =     -9352.926209
siesta: FreeEng =     -9352.926209

siesta: iscf   Eharris(eV)      E_KS(eV)   FreeEng(eV)   dDmax  Ef(eV)
siesta:    1    -9190.6225    -9352.9262    -9352.9262  7.3589 -8.5427
timer: Routine,Calls,Time,% = IterSCF        1    3530.066  99.64
elaps: Routine,Calls,Wall,% = IterSCF        1     442.176  99.63
siesta:    2   -15150.5990    -8239.1194    -8239.1728 20.9172 -6.0852
siesta:    3    -9242.4805    -9173.0078    -9173.0522  2.0534 -5.5562
siesta:    4    -9176.3030    -9099.2829    -9099.3186  1.4742 -5.1107
siesta:    5    -9104.0454    -9037.4742    -9037.5332  1.4495 -4.7488
siesta:    6    -9039.2574    -8998.2381    -8998.2914  1.1901 -4.9742
siesta:    7    -9033.0126    -8988.5370    -8988.5802  1.0838 -5.0633
siesta:    8    -9030.7074    -8986.2017    -8986.2539  1.0439 -5.0642
siesta:    9    -9023.9660    -8982.7617    -8982.8152  0.7079 -5.1099
siesta:   10    -9026.7018    -8981.5757    -8981.6144  0.7931 -5.1079
siesta:   11    -9024.2556    -8980.9102    -8980.9721  0.6527 -4.9784
siesta:   12    -9025.2894    -8981.2859    -8981.3435  0.7214 -4.8980
siesta:   13    -9025.5778    -8978.9907    -8979.0257  0.7686 -5.1406
siesta:   14    -9023.5387    -8982.0053    -8982.0433  0.5494 -4.9601
siesta:   15    -9022.6592    -8983.7839    -8983.8485  0.2494 -4.9369
siesta:   16    -9022.4004    -8988.5371    -8988.5824  0.6577 -5.0697
siesta:   17    -9021.7819    -8991.1885    -8991.2421  0.2159 -5.0313
siesta:   18    -9021.3171    -8997.0379    -8997.0947  0.2242 -5.0485
siesta:   19    -9021.2406    -9003.2113    -9003.2650  0.2402 -5.0632
siesta:   20    -9021.3375    -9009.3513    -9009.4098  0.2316 -5.1104
siesta:   21    -9021.1858    -9015.3338    -9015.3891  0.1207 -5.1262
siesta:   22    -9021.1266    -9020.2298    -9020.2863  0.1040 -5.1642
siesta:   23    -9021.1327    -9020.6731    -9020.7401  0.0996 -5.1638
siesta:   24    -9021.1353    -9019.5186    -9019.5839  0.0921 -5.1602
siesta:   25    -9021.0941    -9019.7078    -9019.7718  0.0903 -5.1524
siesta:   26    -9021.0855    -9021.1437    -9021.2010  0.1121 -5.1625
siesta:   27    -9021.0872    -9020.9296    -9020.9920  0.1234 -5.1604
siesta:   28    -9021.0801    -9021.5522    -9021.6150  0.1213 -5.1609
siesta:   29    -9021.0821    -9020.4169    -9020.4830  0.1037 -5.1205
siesta:   30    -9021.0840    -9021.9493    -9022.0048  0.0753 -5.1160
siesta:   31    -9021.0668    -9021.8882    -9021.9462  0.0282 -5.1092
siesta:   32    -9021.0571    -9022.5339    -9022.5937  0.0196 -5.1159
siesta:   33    -9021.0574    -9022.4909    -9022.5506  0.0296 -5.1102
siesta:   34    -9021.0565    -9022.8258    -9022.8846  0.0120 -5.1135
siesta:   35    -9021.0576    -9022.6398    -9022.6993  0.0107 -5.1133
siesta:   36    -9021.0562    -9022.4170    -9022.4766  0.0098 -5.1123
siesta:   37    -9021.0565    -9022.1396    -9022.2001  0.0086 -5.1132
siesta:   38    -9021.0540    -9021.5426    -9021.6031  0.0146 -5.1129
siesta:   39    -9021.0539    -9021.3482    -9021.4093  0.0095 -5.1128
siesta:   40    -9021.0538    -9021.2544    -9021.3151  0.0029 -5.1111
siesta:   41    -9021.0538    -9021.1846    -9021.2451  0.0021 -5.1107
siesta:   42    -9021.0539    -9021.2186    -9021.2790  0.0021 -5.1103
siesta:   43    -9021.0537    -9021.1581    -9021.2184  0.0013 -5.1103
siesta:   44    -9021.0537    -9021.1528    -9021.2133  0.0008 -5.1105
siesta:   45    -9021.0537    -9021.1531    -9021.2136  0.0006 -5.1109
siesta:   46    -9021.0537    -9021.1537    -9021.2143  0.0005 -5.1110
siesta:   47    -9021.0537    -9021.1024    -9021.1629  0.0003 -5.1110
siesta:   48    -9021.0537    -9021.0765    -9021.1369  0.0003 -5.1110
siesta:   49    -9021.0537    -9021.0666    -9021.1271  0.0002 -5.1110
siesta:   50    -9021.0537    -9021.0622    -9021.1227  0.0002 -5.1110
siesta:   51    -9021.0537    -9021.0586    -9021.1191  0.0001 -5.1110
siesta:   52    -9021.0537    -9021.0569    -9021.1174  0.0001 -5.1110

siesta: E_KS(eV) =            -9021.0553

siesta: E_KS - E_eggbox =     -9021.0553

siesta: Atomic forces (eV/Ang):
----------------------------------------
   Tot   -0.083563    0.141153    0.000000
----------------------------------------
   Max  557.780670
   Res  134.332168    sqrt( Sum f_i^2 / 3N )
----------------------------------------
   Max  557.780670    constrained

Stress-tensor-Voigt (kbar):     -700.42    -2475.39       -0.71       -7.60        0.00        0.00
(Free)E + p*V (eV/cell)    -7769.9461
Target enthalpy (eV/cell)    -9021.1158

siesta: Stress tensor (static) (eV/Ang**3):
        -0.437160   -0.004742    0.000000
        -0.004742   -1.544998    0.000000
         0.000000    0.000000   -0.000440

siesta: Pressure (static):       1058.83580825  kBar

siesta: Stress tensor (total) (eV/Ang**3):
        -0.437160   -0.004742    0.000000
        -0.004742   -1.544998    0.000000
         0.000000    0.000000   -0.000440

siesta: Pressure (total):       1058.83580825  kBar

siesta: Temp_ion =       0.000 K

* Maximum dynamic memory allocated =   258 MB
Computing bands...

siesta: Program's energy decomposition (eV):
siesta: Ebs     =     -4040.519372
siesta: Eions   =     15201.593291
siesta: Ena     =      4125.859057
siesta: Ekin    =      7829.921970
siesta: Enl     =      -769.377848
siesta: DEna    =      -742.576811
siesta: DUscf   =        98.673518
siesta: DUext   =         0.000000
siesta: Exc     =     -4361.961855
siesta: eta*DQ  =         0.000000
siesta: Emadel  =         0.000000
siesta: Emeta   =         0.000000
siesta: Emolmec =         0.000000
siesta: Ekinion =         0.000000
siesta: Eharris =     -9021.053685
siesta: Etot    =     -9021.055259
siesta: FreeEng =     -9021.115765

siesta: Final energy (eV):
siesta:  Band Struct. =   -4040.519372
siesta:       Kinetic =    7829.921970
siesta:       Hartree =   25406.911339
siesta:    Ext. field =       0.000000
siesta:   Exch.-corr. =   -4361.961855
siesta:  Ion-electron =  -58371.842149
siesta:       Ion-ion =   20475.915436
siesta:       Ekinion =       0.000000
siesta:         Total =   -9021.055259

siesta: Atomic forces (eV/Ang):
siesta:      1    0.309425  106.769435    0.000000
siesta:      2    3.146432 -399.627583    0.000000
siesta:      3   -3.738511  105.651051    0.000000
siesta:      4   -2.638603 -400.071196    0.000000
siesta:      5  -15.506518    0.506705    0.000000
siesta:      6  -16.309654 -394.587260    0.000000
siesta:      7   -1.627324   -0.075685    0.000000
siesta:      8    0.126551   -4.029087    0.000000
siesta:      9   -5.079971   -0.406452    0.000000
siesta:     10    5.574605   -4.715123    0.000000
siesta:     11   -3.610648    2.549480    0.000000
siesta:     12   -5.763275   -3.413550    0.000000
siesta:     13   -5.760717    3.360894    0.000000
siesta:     14   -3.119498    1.289363    0.000000
siesta:     15   -4.401975    1.639402    0.000000
siesta:     16    5.362558   -3.087576    0.000000
siesta:     17    0.565318    1.769880    0.000000
siesta:     18  -15.376667    1.621049    0.000000
siesta:     19  -17.085358 -398.773169    0.000000
siesta:     20   -2.881524    3.577497    0.000000
siesta:     21   -3.514494    2.645714    0.000000
siesta:     22   -2.245338  107.704851    0.000000
siesta:     23   -4.378554 -386.529016    0.000000
siesta:     24    0.022809  105.250185    0.000000
siesta:     25   -1.651108 -408.030336    0.000000
siesta:     26    7.231632  547.972618    0.000000
siesta:     27  -11.924673 -132.810164    0.000000
siesta:     28   25.834742    5.868607    0.000000
siesta:     29   27.279769 -543.008393    0.000000
siesta:     30    1.606372   -0.092208    0.000000
siesta:     31   -2.214495    2.115488    0.000000
siesta:     32    2.061444    2.320873    0.000000
siesta:     33   -0.476612    0.472951    0.000000
siesta:     34   28.621993  556.034234    0.000000
siesta:     35   -3.597420 -129.194255    0.000000
siesta:     36   36.154453  549.125285    0.000000
siesta:     37   23.893373   -2.272771    0.000000
siesta:     38   -2.263261   -2.148682    0.000000
siesta:     39    6.707341   -2.361307    0.000000
siesta:     40   -1.747420   -0.411603    0.000000
siesta:     41    2.184446   -1.572310    0.000000
siesta:     42    0.220766    5.889833    0.000000
siesta:     43   -0.520246   -6.358312    0.000000
siesta:     44  -16.729522  403.443501    0.000000
siesta:     45   -1.480606 -118.854636    0.000000
siesta:     46   -4.350477  404.763750    0.000000
siesta:     47    0.082014 -120.996230    0.000000
siesta:     48   27.051497  415.068330    0.000000
siesta:     49   19.557826   -2.038420    0.000000
siesta:     50    0.038529    3.963533    0.000000
siesta:     51   -0.931811    0.986459    0.000000
siesta:     52   -0.132001   -0.683177    0.000000
siesta:     53  -31.301933  402.570853    0.000000
siesta:     54  -23.565921    1.822694    0.000000
siesta:     55  -29.263378  413.544399    0.000000
siesta:     56  -21.624132   -2.456481    0.000000
siesta:     57    1.247382  417.796179    0.000000
siesta:     58   -0.691688    3.284603    0.000000
siesta:     59    0.261346   -0.386573    0.000000
siesta:     60   -0.807997    0.951200    0.000000
siesta:     61    2.281973   -1.852330    0.000000
siesta:     62    0.173481   -3.543601    0.000000
siesta:     63    1.352262    1.428472    0.000000
siesta:     64    1.849603   -1.341157    0.000000
siesta:     65    2.297100   -1.338882    0.000000
siesta:     66    3.706367   -0.473721    0.000000
siesta:     67    0.646395    0.377195    0.000000
siesta:     68   -0.757654   -2.247227    0.000000
siesta:     69    0.737560   -2.672959    0.000000
siesta:     70   -6.411896 -557.780670    0.000000
siesta:     71   21.957108    7.980990    0.000000
siesta:     72   15.254844 -551.734296    0.000000
siesta: ----------------------------------------
siesta:    Tot   -0.083563    0.141153    0.000000

siesta: Stress tensor (static) (eV/Ang**3):
siesta:    -0.437160   -0.004742    0.000000
siesta:    -0.004742   -1.544998    0.000000
siesta:     0.000000    0.000000   -0.000440

siesta: Cell volume =       1893.226884 Ang**3

siesta: Pressure (static):
siesta:                Solid            Molecule  Units
siesta:           0.00719768          0.10219829  Ry/Bohr**3
siesta:           0.66086619          9.38349928  eV/Ang**3
siesta:        1058.83580825      15034.18579737  kBar
(Free)E+ p_basis*V_orbitals  =       -8982.479313
(Free)Eharris+ p_basis*V_orbitals  =       -8982.476070

siesta: Electric dipole (a.u.)  =    0.000000    0.000000    0.000000
siesta: Electric dipole (Debye) =    0.000000    0.000000    0.000000

* Maximum dynamic memory allocated : Node    0 =   258 MB
* Maximum dynamic memory allocated : Node    1 =    90 MB
* Maximum dynamic memory allocated : Node    2 =    94 MB
* Maximum dynamic memory allocated : Node    3 =   244 MB
* Maximum dynamic memory allocated : Node    4 =   226 MB
* Maximum dynamic memory allocated : Node    5 =    83 MB
* Maximum dynamic memory allocated : Node    6 =    85 MB
* Maximum dynamic memory allocated : Node    7 =   208 MB

* Maximum memory occured during matrixMtoO                    

timer: CPU execution times:
timer:  Routine       Calls   Time/call    Tot.time        %
timer:  siesta            1  182669.384  182669.384   100.00
timer:  Setup             1       4.769       4.769     0.00
timer:  bands             3     244.285     732.856     0.40
timer:  writewave         1       0.046       0.046     0.00
timer:  KSV_init          1       0.005       0.005     0.00
timer:  IterMD            1  181926.495  181926.495    99.59
timer:  hsparse           1       0.517       0.517     0.00
timer:  overlap           1       7.208       7.208     0.00
timer:  IterSCF          52    3494.137  181695.146    99.47
timer:  kinefsm           2       3.759       7.519     0.00
timer:  nlefsm            2      20.993      41.986     0.02
timer:  DHSCF            53     119.784    6348.555     3.48
timer:  DHSCF1            1       0.994       0.994     0.00
timer:  DHSCF2            1      45.384      45.384     0.02
timer:  REORD           426       0.005       2.088     0.00
timer:  POISON           54       0.881      47.581     0.03
timer:  DHSCF3           53     118.081    6258.279     3.43
timer:  rhoofd           53      25.286    1340.160     0.73
timer:  cellXC           53       3.264     172.998     0.09
timer:  vmat             53      55.859    2960.505     1.62
timer:  MolMec            2       0.000       0.000     0.00
timer:  diagon           52    3373.241  175408.507    96.03
timer:  c-eigval      12133       6.047   73373.429    40.17
timer:  c-buildHS     12133       0.054     652.102     0.36
timer:  cdiag         24145       6.192  149499.286    81.84
timer:  cdiag1        24145       0.385    9292.969     5.09
timer:  cdiag2        24145       1.769   42722.932    23.39
timer:  cdiag3        24145       3.750   90534.558    49.56
timer:  cdiag4        24145       0.154    3720.239     2.04
timer:  c-eigvec      12012       6.438   77335.193    42.34
timer:  c-buildD      12012       2.112   25371.983    13.89
timer:  DHSCF4            1      42.889      42.889     0.02
timer:  dfscf             1      40.051      40.051     0.02
timer:  overfsm           1       0.463       0.463     0.00
timer:  optical           1       4.627       4.627     0.00
  

elaps: ELAPSED times:
elaps:  Routine       Calls   Time/call    Tot.time        %
elaps:  siesta            1   22876.794   22876.794   100.00
elaps:  Setup             1       0.630       0.630     0.00
elaps:  bands             3      30.613      91.838     0.40
elaps:  writewave         1       0.006       0.006     0.00
elaps:  KSV_init          1       0.001       0.001     0.00
elaps:  IterMD            1   22783.720   22783.720    99.59
elaps:  hsparse           1       0.069       0.069     0.00
elaps:  overlap           1       0.905       0.905     0.00
elaps:  IterSCF          52     437.594   22754.884    99.47
elaps:  kinefsm           2       0.473       0.946     0.00
elaps:  nlefsm            2       2.684       5.368     0.02
elaps:  DHSCF            53      15.110     800.831     3.50
elaps:  DHSCF1            1       0.126       0.126     0.00
elaps:  DHSCF2            1       5.682       5.682     0.02
elaps:  REORD           426       0.001       0.289     0.00
elaps:  POISON           54       0.111       6.001     0.03
elaps:  DHSCF3           53      14.788     783.767     3.43
elaps:  rhoofd           53       7.250     384.251     1.68
elaps:  cellXC           53       0.409      21.652     0.09
elaps:  vmat             53       6.995     370.761     1.62
elaps:  MolMec            2       0.000       0.000     0.00
elaps:  diagon           52     422.452   21967.507    96.03
elaps:  c-eigval      12133       0.757    9188.690    40.17
elaps:  c-buildHS     12133       0.007      88.419     0.39
elaps:  cdiag         24145       0.770   18581.552    81.22
elaps:  cdiag1        24145       0.048    1167.809     5.10
elaps:  cdiag2        24145       0.222    5351.108    23.39
elaps:  cdiag3        24145       0.470   11353.393    49.63
elaps:  cdiag4        24145       0.019     456.045     1.99
elaps:  c-eigvec      12012       0.795    9551.617    41.75
elaps:  c-buildD      12012       0.276    3310.789    14.47
elaps:  DHSCF4            1      11.134      11.134     0.05
elaps:  dfscf             1      10.556      10.556     0.05
elaps:  overfsm           1       0.060       0.060     0.00
elaps:  optical           1       0.001       0.001     0.00
  
>> End of run:  21-APR-2016  15:37:31
