Siesta Version:                                        siesta-3.2-pl-3
Architecture  : x86_64-unknown-linux-gnu--unknown
Compiler flags: mpiifort -g -O2 -fPIC -xSSE4.1 -fp-model source -shared-intel 
PARALLEL version

* Running on   12 nodes in parallel
>> Start of run:   6-APR-2016  14:53:40

                           ***********************       
                           *  WELCOME TO SIESTA  *       
                           ***********************       

reinit: Reading from standard input
************************** Dump of input data file ****************************
#(1) General system descriptors
SystemName            GRP_doping    # Descriptive name of the system
SystemLabel           GRP_doping    # Short name for naming files
%include STRUCT.fdf
%include KPT.fdf
%include BASIS.fdf
#%include TS.fdf # for transiesta calculation
#(4) DFT, Grid, SCF
XC.functional         GGA           # LDA or GGA (default = LDA)
XC.authors            PBE           # CA (Ceperley-Aldr) = PZ
                                    #    (Perdew-Zunger) - LDA - Default
                                    # PW92 (Perdew-Wang-92) - LDA
                                    # PBE (Perdew-Burke-Ernzerhof) - GGA
MeshCutoff            200.000000    Ry      # Default: 50.0 Ry ~ 0.444 Bohr
                                    #         100.0 Ry ~ 0.314 Bohr
MaxSCFIterations      500           # Default: 50
DM.MixingWeight       0.05          # Default: 0.25
DM.NumberPulay        10            # Default: 0
DM.PulayOnFile        F             # SystemLabel.P1, SystemLabel.P2
DM.Tolerance          1.d-4         # Default: 1.d-4
DM.UseSaveDM          .true.        # because of the bug
SCFMustConverge       .true.
NeglNonOverlapInt     F             # Default: F
Diag.ParallelOverK    .true.
#(5) Eigenvalue problem: order-N or diagonalization
SolutionMethod        Diagon        # or Transiesta
ElectronicTemperature 300.0 K       # Default: 300.0 K
#(6) Molecular dynamics and relaxations
#MD.TypeOfRun          CG            # Type of dynamics:
#MD.VariableCell       F
#MD.NumCGsteps         0           # 0 for single-point / 100 for gopt
#MD.MaxCGDispl         0.2 Bohr      # Default: 0.2 Bohr
#MD.MaxForceTol        0.02 eV/Ang   # Default: 0.04 eV/Ang
#MD.MaxStressTol       1.0 GPa       # Default: 1.0 GPa
************************** End of input data file *****************************

reinit: -----------------------------------------------------------------------
reinit: System Name: GRP_doping
reinit: -----------------------------------------------------------------------
reinit: System Label: GRP_doping                                                  
reinit: -----------------------------------------------------------------------

initatom: Reading input for the pseudopotentials and atomic orbitals ----------
 Species number:            1  Label: C Atomic number:           6
 Species number:            2  Label: N Atomic number:           7
Ground state valence configuration:   2s02  2p02
Reading pseudopotential information in formatted form from C.psf

Valence configuration for pseudopotential generation:
2s( 2.00) rc: 1.54
2p( 2.00) rc: 1.54
3d( 0.00) rc: 1.54
4f( 0.00) rc: 1.54
Ground state valence configuration:   2s02  2p03
Reading pseudopotential information in formatted form from N.psf

Valence configuration for pseudopotential generation:
2s( 2.00) rc: 1.48
2p( 3.00) rc: 1.48
3d( 0.00) rc: 1.48
4f( 0.00) rc: 1.48
For C, standard SIESTA heuristics set lmxkb to 3
 (one more than the basis l, including polarization orbitals).
Use PS.lmax or PS.KBprojectors blocks to override.
For N, standard SIESTA heuristics set lmxkb to 3
 (one more than the basis l, including polarization orbitals).
Use PS.lmax or PS.KBprojectors blocks to override.

<basis_specs>
===============================================================================
C                    Z=   6    Mass=  12.010        Charge= 0.17977+309
Lmxo=1 Lmxkb= 3    BasisType=split      Semic=F
L=0  Nsemic=0  Cnfigmx=2
          n=1  nzeta=2  polorb=0
            splnorm:   0.15000    
               vcte:    0.0000    
               rinn:    0.0000    
                rcs:    0.0000      0.0000    
            lambdas:    1.0000      1.0000    
L=1  Nsemic=0  Cnfigmx=2
          n=1  nzeta=2  polorb=1
            splnorm:   0.15000    
               vcte:    0.0000    
               rinn:    0.0000    
                rcs:    0.0000      0.0000    
            lambdas:    1.0000      1.0000    
-------------------------------------------------------------------------------
L=0  Nkbl=1  erefs: 0.17977+309
L=1  Nkbl=1  erefs: 0.17977+309
L=2  Nkbl=1  erefs: 0.17977+309
L=3  Nkbl=1  erefs: 0.17977+309
===============================================================================
</basis_specs>

atom: Called for C                     (Z =   6)

read_vps: Pseudopotential generation method:
read_vps: ATM3      Troullier-Martins                       
Total valence charge:    4.00000

read_vps: Pseudopotential includes a core correction:
read_vps: Pseudo-core for xc-correction

xc_check: Exchange-correlation functional:
xc_check: GGA Perdew, Burke & Ernzerhof 1996
V l=0 = -2*Zval/r beyond r=  1.5227
V l=1 = -2*Zval/r beyond r=  1.5227
V l=2 = -2*Zval/r beyond r=  1.5227
V l=3 = -2*Zval/r beyond r=  1.5038
All V_l potentials equal beyond r=  1.5227
This should be close to max(r_c) in ps generation
All pots = -2*Zval/r beyond r=  1.5227

VLOCAL1: 99.0% of the norm of Vloc inside     18.722 Ry
VLOCAL1: 99.9% of the norm of Vloc inside     42.668 Ry
atom: Maximum radius for 4*pi*r*r*local-pseudopot. charge    1.83678
atom: Maximum radius for r*vlocal+2*Zval:    1.58088
GHOST: No ghost state for L =  0
GHOST: No ghost state for L =  1
GHOST: No ghost state for L =  2
GHOST: No ghost state for L =  3

KBgen: Kleinman-Bylander projectors: 
   l= 0   rc=  1.704034   el= -1.009801   Ekb=  5.335044   kbcos=  0.316824
   l= 1   rc=  1.704034   el= -0.388707   Ekb= -3.785862   kbcos= -0.366464
   l= 2   rc=  1.791422   el=  0.001971   Ekb= -0.970471   kbcos= -0.009212
   l= 3   rc=  1.859892   el=  0.003065   Ekb= -0.399525   kbcos= -0.001223

KBgen: Total number of  Kleinman-Bylander projectors:   16
atom: -------------------------------------------------------------------------

atom: SANKEY-TYPE ORBITALS:
atom: Selected multiple-zeta basis: split     

SPLIT: Orbitals with angular momentum L= 0

SPLIT: Basis orbitals for state 2s

SPLIT: PAO cut-off radius determined from an
SPLIT: energy shift=  0.007350 Ry

   izeta = 1
                 lambda =    1.000000
                     rc =    4.632753
                 energy =   -1.002270
                kinetic =    0.855760
    potential(screened) =   -1.858031
       potential(ionic) =   -5.417575

   izeta = 2
                 rmatch =    3.431921
              splitnorm =    0.150000
                 energy =   -0.867111
                kinetic =    1.300804
    potential(screened) =   -2.167915
       potential(ionic) =   -5.962684

SPLIT: Orbitals with angular momentum L= 1

SPLIT: Basis orbitals for state 2p

SPLIT: PAO cut-off radius determined from an
SPLIT: energy shift=  0.007350 Ry

   izeta = 1
                 lambda =    1.000000
                     rc =    5.658549
                 energy =   -0.381140
                kinetic =    2.399701
    potential(screened) =   -2.780841
       potential(ionic) =   -6.206085

   izeta = 2
                 rmatch =    3.653288
              splitnorm =    0.150000
                 energy =   -0.249149
                kinetic =    3.542762
    potential(screened) =   -3.791911
       potential(ionic) =   -7.581078

POLgen: Perturbative polarization orbital with L=  2

POLgen: Polarization orbital for state 2p

   izeta = 1
                     rc =    5.658549
                 energy =    1.109913
                kinetic =    2.304789
    potential(screened) =   -1.194876
       potential(ionic) =   -4.013592
atom: Total number of Sankey-type orbitals: 13

atm_pop: Valence configuration (for local Pseudopot. screening):
 2s( 2.00)                                                            
 2p( 2.00)                                                            
Vna: chval, zval:    4.00000   4.00000

Vna:  Cut-off radius for the neutral-atom potential:   5.658549
comcore: Pseudo-core radius Rcore=  1.791422

atom: _________________________________________________________________________

<basis_specs>
===============================================================================
N                    Z=   7    Mass=  14.010        Charge= 0.17977+309
Lmxo=1 Lmxkb= 3    BasisType=split      Semic=F
L=0  Nsemic=0  Cnfigmx=2
          n=1  nzeta=2  polorb=0
            splnorm:   0.15000    
               vcte:    0.0000    
               rinn:    0.0000    
                rcs:    0.0000      0.0000    
            lambdas:    1.0000      1.0000    
L=1  Nsemic=0  Cnfigmx=2
          n=1  nzeta=2  polorb=1
            splnorm:   0.15000    
               vcte:    0.0000    
               rinn:    0.0000    
                rcs:    0.0000      0.0000    
            lambdas:    1.0000      1.0000    
-------------------------------------------------------------------------------
L=0  Nkbl=1  erefs: 0.17977+309
L=1  Nkbl=1  erefs: 0.17977+309
L=2  Nkbl=1  erefs: 0.17977+309
L=3  Nkbl=1  erefs: 0.17977+309
===============================================================================
</basis_specs>

atom: Called for N                     (Z =   7)

read_vps: Pseudopotential generation method:
read_vps: ATM3      Troullier-Martins                       
Total valence charge:    5.00000

read_vps: Pseudopotential includes a core correction:
read_vps: Pseudo-core for xc-correction

xc_check: Exchange-correlation functional:
xc_check: GGA Perdew, Burke & Ernzerhof 1996
V l=0 = -2*Zval/r beyond r=  1.4606
V l=1 = -2*Zval/r beyond r=  1.4606
V l=2 = -2*Zval/r beyond r=  1.4606
V l=3 = -2*Zval/r beyond r=  1.4606
All V_l potentials equal beyond r=  1.4606
This should be close to max(r_c) in ps generation
All pots = -2*Zval/r beyond r=  1.4606

VLOCAL1: 99.0% of the norm of Vloc inside     20.347 Ry
VLOCAL1: 99.9% of the norm of Vloc inside     46.372 Ry
atom: Maximum radius for 4*pi*r*r*local-pseudopot. charge    1.76189
atom: Maximum radius for r*vlocal+2*Zval:    1.53550
GHOST: No ghost state for L =  0
GHOST: No ghost state for L =  1
GHOST: No ghost state for L =  2
GHOST: No ghost state for L =  3

KBgen: Kleinman-Bylander projectors: 
   l= 0   rc=  1.634559   el= -1.363963   Ekb=  5.296955   kbcos=  0.335621
   l= 1   rc=  1.614250   el= -0.521451   Ekb= -5.259161   kbcos= -0.433408
   l= 2   rc=  1.718383   el=  0.001991   Ekb= -1.271464   kbcos= -0.007566
   l= 3   rc=  1.761893   el=  0.003093   Ekb= -0.494769   kbcos= -0.001015

KBgen: Total number of  Kleinman-Bylander projectors:   16
atom: -------------------------------------------------------------------------

atom: SANKEY-TYPE ORBITALS:
atom: Selected multiple-zeta basis: split     

SPLIT: Orbitals with angular momentum L= 0

SPLIT: Basis orbitals for state 2s

SPLIT: PAO cut-off radius determined from an
SPLIT: energy shift=  0.007350 Ry

   izeta = 1
                 lambda =    1.000000
                     rc =    4.071465
                 energy =   -1.356470
                kinetic =    1.176977
    potential(screened) =   -2.533447
       potential(ionic) =   -8.057990

   izeta = 2
                 rmatch =    2.905100
              splitnorm =    0.150000
                 energy =   -1.158343
                kinetic =    1.813009
    potential(screened) =   -2.971352
       potential(ionic) =   -8.901931

SPLIT: Orbitals with angular momentum L= 1

SPLIT: Basis orbitals for state 2p

SPLIT: PAO cut-off radius determined from an
SPLIT: energy shift=  0.007350 Ry

   izeta = 1
                 lambda =    1.000000
                     rc =    4.972977
                 energy =   -0.513884
                kinetic =    3.441732
    potential(screened) =   -3.955616
       potential(ionic) =   -9.287901

   izeta = 2
                 rmatch =    3.054066
              splitnorm =    0.150000
                 energy =   -0.318226
                kinetic =    5.125348
    potential(screened) =   -5.443573
       potential(ionic) =  -11.380999

POLgen: Perturbative polarization orbital with L=  2

POLgen: Polarization orbital for state 2p

   izeta = 1
                     rc =    4.972977
                 energy =    1.607437
                kinetic =    3.268125
    potential(screened) =   -1.660688
       potential(ionic) =   -5.973652
atom: Total number of Sankey-type orbitals: 13

atm_pop: Valence configuration (for local Pseudopot. screening):
 2s( 2.00)                                                            
 2p( 3.00)                                                            
Vna: chval, zval:    5.00000   5.00000

Vna:  Cut-off radius for the neutral-atom potential:   4.972977
comcore: Pseudo-core radius Rcore=  1.554824

atom: _________________________________________________________________________

prinput: Basis input ----------------------------------------------------------

PAO.BasisType split     

%block ChemicalSpeciesLabel
    1    6 C                       # Species index, atomic number, species label
    2    7 N                       # Species index, atomic number, species label
%endblock ChemicalSpeciesLabel

%block PAO.Basis                 # Define Basis set
C                     2                    # Species label, number of l-shells
 n=2   0   2                         # n, l, Nzeta 
   4.633      3.432   
   1.000      1.000   
 n=2   1   2 P   1                   # n, l, Nzeta, Polarization, NzetaPol
   5.659      3.653   
   1.000      1.000   
N                     2                    # Species label, number of l-shells
 n=2   0   2                         # n, l, Nzeta 
   4.071      2.905   
   1.000      1.000   
 n=2   1   2 P   1                   # n, l, Nzeta, Polarization, NzetaPol
   4.973      3.054   
   1.000      1.000   
%endblock PAO.Basis

prinput: ----------------------------------------------------------------------

coor:   Atomic-coordinates input format  =     Cartesian coordinates
coor:                                          (in Angstroms)

siesta: Atomic coordinates (Bohr) and species
siesta:      2.23554   1.32097   0.00000  1        1
siesta:     32.50291  13.41944   0.00000  1        2
siesta:     34.83104  14.76308   0.00000  1        3
siesta:     30.17465   9.38661   0.00000  1        4
siesta:     32.50278  10.73026   0.00000  1        5
siesta:     27.84639   5.35379   0.00000  1        6
siesta:     30.17453   6.69743   0.00000  1        7
siesta:     27.84714  21.48508   0.00000  1        8
siesta:     30.17527  22.82873   0.00000  1        9
siesta:     11.54782   1.32097   0.00000  1       10
siesta:     13.87595   2.66461   0.00000  1       11
siesta:     16.20396   1.32097   0.00000  1       12
siesta:     18.53210   2.66461   0.00000  1       13
siesta:     20.86199   1.32097   0.00000  1       14
siesta:     23.19013   2.66461   0.00000  1       15
siesta:     25.51813   1.32097   0.00000  1       16
siesta:     27.84627   2.66461   0.00000  1       17
siesta:     11.54807   6.69743   0.00000  1       18
siesta:     13.87608   5.35379   0.00000  1       19
siesta:     16.20421   6.69743   0.00000  1       20
siesta:     18.53411   5.35379   0.00000  1       21
siesta:     20.86224   6.69743   0.00000  1       22
siesta:     23.19025   5.35379   0.00000  1       23
siesta:     25.51838   6.69743   0.00000  1       24
siesta:      6.89205   9.38661   0.00000  1       25
siesta:      9.22019  10.73026   0.00000  1       26
siesta:     11.54820   9.38661   0.00000  1       27
siesta:     13.87633  10.73026   0.00000  1       28
siesta:     16.20434   9.38661   0.00000  1       29
siesta:      9.22031  13.41944   0.00000  1       30
siesta:     11.54845  14.76308   0.00000  1       31
siesta:     13.87645  13.41944   0.00000  1       32
siesta:     16.20459  14.76308   0.00000  1       33
siesta:     11.54857  17.45226   0.00000  1       34
siesta:     13.87670  18.79590   0.00000  1       35
siesta:     16.20471  17.45226   0.00000  1       36
siesta:     18.53284  18.79590   0.00000  1       37
siesta:     13.87683  21.48508   0.00000  1       38
siesta:     16.20496  22.82873   0.00000  1       39
siesta:     18.53486  21.48508   0.00000  1       40
siesta:     20.86299  22.82873   0.00000  1       41
siesta:     25.51851   9.38661   0.00000  1       42
siesta:     27.84664  10.73026   0.00000  1       43
siesta:     25.51876  14.76308   0.00000  1       44
siesta:     20.86274  17.45226   0.00000  1       45
siesta:     23.19088  18.79590   0.00000  1       46
siesta:     27.84677  13.41944   0.00000  1       47
siesta:     30.17490  14.76308   0.00000  1       48
siesta:     25.51888  17.45226   0.00000  1       49
siesta:     27.84702  18.79590   0.00000  1       50
siesta:     23.19100  21.48508   0.00000  1       51
siesta:     25.51913  22.82873   0.00000  1       52
siesta:     30.17503  17.45226   0.00000  1       53
siesta:     39.48945  22.82873   0.00000  1       54
siesta:      4.56367   2.66461   0.00000  2       55
siesta:     32.50328  21.48508   0.00000  2       56
siesta:     34.83141  22.82873   0.00000  2       57
siesta:     34.83116  17.45226   0.00000  2       58
siesta:     37.15930  18.79590   0.00000  2       59
siesta:      6.89168   1.32097   0.00000  2       60
siesta:      9.21981   2.66461   0.00000  2       61
siesta:      4.56380   5.35379   0.00000  2       62
siesta:      6.89193   6.69743   0.00000  2       63
siesta:      9.21994   5.35379   0.00000  2       64
siesta:     18.53247  10.73026   0.00000  2       65
siesta:     20.86237   9.38661   0.00000  2       66
siesta:     23.19050  10.73026   0.00000  2       67
siesta:     18.53448  13.41944   0.00000  2       68
siesta:     20.86262  14.76308   0.00000  2       69
siesta:     23.19063  13.41944   0.00000  2       70
siesta:     32.50316  18.79590   0.00000  2       71
siesta:     37.16131  21.48508   0.00000  2       72

siesta: System type = slab      

initatomlists: Number of atoms, orbitals, and projectors:     72   936  1152

siesta: ******************** Simulation parameters ****************************
siesta:
siesta: The following are some of the parameters of the simulation.
siesta: A complete list of the parameters used, including default values,
siesta: can be found in file out.fdf
siesta:
redata: Non-Collinear-spin run           =     F
redata: SpinPolarized (Up/Down) run      =     F
redata: Number of spin components        =     1
redata: Long output                      =     F
redata: Number of Atomic Species         =        2
redata: Charge density info will appear in .RHO file
redata: Write Mulliken Pop.              =     NO
redata: Mesh Cutoff                      =   200.0000  Ry
redata: Net charge of the system         =     0.0000 |e|
redata: Max. number of SCF Iter          =      500
redata: SCF convergence failure will abort job
redata: Performing Pulay mixing using    =    10 iterations
redata: Mix DM in first SCF step ?       =     F
redata: Write Pulay info on disk?        =     F
redata: Discard 1st Pulay DM after  kick =     F
redata: New DM Mixing Weight             =     0.0500
redata: New DM Occupancy tolerance       = 0.000000000001
redata: No kicks to SCF
redata: DM Mixing Weight for Kicks       =     0.5000
redata: DM Tolerance for SCF             =     0.000100
redata: Require Energy convergence for SCF =     F
redata: DM Energy tolerance for SCF      =     0.000100 eV
redata: Require Harris convergence for SCF =     F
redata: DM Harris energy tolerance for SCF =     0.000100 eV
redata: Using Saved Data (generic)   =     F
redata: Use continuation files for DM    =     T
redata: Neglect nonoverlap interactions  =     F
redata: Method of Calculation            =     Diagonalization
redata: Divide and Conquer               =     T
redata: Electronic Temperature           =     0.0019  Ry
redata: Fix the spin of the system       =     F
redata: Dynamics option                  =     Verlet MD run
redata: Initial MD time step             =        1
redata:   Final MD time step             =        1
redata: Length of MD time step           =     1.0000  fs
redata: Initial Temperature of MD run    =     0.0000  K
redata: Perform a MD quench              =     F
redata: ***********************************************************************
Total number of electrons:   306.000000
Total ionic charge:   306.000000

* ProcessorY, Blocksize:    3  24

k-point displ. along   1 input, could be:     0.50    0.00
k-point displ. along   2 input, could be:     0.50    0.00
 Kpoints in:          231 . Kpoints trimmed:          231

siesta: k-grid: Number of k-points =   231
siesta: k-grid: Cutoff (effective) =     5.000 Ang
siesta: k-grid: Supercell and displacements
siesta: k-grid:   21   0   0      0.500
siesta: k-grid:    0  21   0      0.500
siesta: k-grid:    0   0   1      0.000
Naive supercell factors:     2    2    2

superc: Internal auxiliary supercell:     2 x     2 x     2  =       8
superc: Number of atoms, orbitals, and projectors:    576   7488   9216

* Maximum dynamic memory allocated =     4 MB

siesta:                 ==============================
                            Begin MD step =      1
                        ==============================

superc: Internal auxiliary supercell:     2 x     2 x     2  =       8
superc: Number of atoms, orbitals, and projectors:    576   7488   9216

outcell: Unit cell vectors (Ang):
       14.785000    0.000000    0.000000
        7.393000   12.805052    0.000000
        0.000000    0.000000   10.000000

outcell: Cell vector modules (Ang)   :   14.785000   14.786000   10.000000
outcell: Cell angles (23,13,12) (deg):     90.0000     90.0000     60.0000
outcell: Cell volume (Ang**3)        :   1893.2269
New_DM. Step:     1
Initializing Density Matrix...

iodm: Reading Density Matrix from files

InitMesh: MESH =   120 x   120 x    90 =     1296000
InitMesh: Mesh cutoff (required, used) =   200.000   223.865 Ry

* Maximum dynamic memory allocated =   130 MB

stepf: Fermi-Dirac step function

siesta: Program's energy decomposition (eV):
siesta: Ebs     =     -4426.367434
siesta: Eions   =     21296.454266
siesta: Ena     =      4153.291591
siesta: Ekin    =      9336.493381
siesta: Enl     =     -1314.877096
siesta: DEna    =      -212.817031
siesta: DUscf   =        25.603217
siesta: DUext   =         0.000000
siesta: Exc     =     -4462.918977
siesta: eta*DQ  =         0.000000
siesta: Emadel  =         0.000000
siesta: Emeta   =         0.000000
siesta: Emolmec =         0.000000
siesta: Ekinion =         0.000000
siesta: Eharris =    -13771.679066
siesta: Etot    =    -13771.679181
siesta: FreeEng =    -13771.679181

siesta: iscf   Eharris(eV)      E_KS(eV)   FreeEng(eV)   dDmax  Ef(eV)
siesta:    1   -13771.6791   -13771.6792   -13771.6792  0.0001 -3.0379
timer: Routine,Calls,Time,% = IterSCF        1    1189.914  98.97
elaps: Routine,Calls,Wall,% = IterSCF        1      99.403  98.97

siesta: E_KS(eV) =           -13771.6791

siesta: E_KS - E_eggbox =    -13771.6791

siesta: Atomic forces (eV/Ang):
----------------------------------------
   Tot    0.413625   -0.050523    0.000000
----------------------------------------
   Max    0.830768
   Res    0.372998    sqrt( Sum f_i^2 / 3N )
----------------------------------------
   Max    0.830768    constrained

Stress-tensor-Voigt (kbar):       12.36       12.80        0.22       -0.26        0.00        0.00
(Free)E + p*V (eV/cell)   -13781.7259
Target enthalpy (eV/cell)   -13771.7265

siesta: Stress tensor (static) (eV/Ang**3):
         0.007717   -0.000160    0.000000
        -0.000160    0.007991    0.000000
         0.000000    0.000000    0.000138

siesta: Pressure (static):         -8.46229549  kBar

siesta: Stress tensor (total) (eV/Ang**3):
         0.007717   -0.000160    0.000000
        -0.000160    0.007991    0.000000
         0.000000    0.000000    0.000138

siesta: Pressure (total):         -8.46229549  kBar

siesta: Temp_ion =       0.000 K

* Maximum dynamic memory allocated =   222 MB

siesta: Program's energy decomposition (eV):
siesta: Ebs     =     -4426.367434
siesta: Eions   =     21296.454266
siesta: Ena     =      4153.291591
siesta: Ekin    =      9336.441106
siesta: Enl     =     -1314.858868
siesta: DEna    =      -212.791560
siesta: DUscf   =        25.602552
siesta: DUext   =         0.000000
siesta: Exc     =     -4462.909621
siesta: eta*DQ  =         0.000000
siesta: Emadel  =         0.000000
siesta: Emeta   =         0.000000
siesta: Emolmec =         0.000000
siesta: Ekinion =         0.000000
siesta: Eharris =    -13771.679066
siesta: Etot    =    -13771.679065
siesta: FreeEng =    -13771.726488

siesta: Final energy (eV):
siesta:  Band Struct. =   -4426.367434
siesta:       Kinetic =    9336.441106
siesta:       Hartree =   26612.513490
siesta:    Ext. field =       0.000000
siesta:   Exch.-corr. =   -4462.909621
siesta:  Ion-electron =  -61952.608067
siesta:       Ion-ion =   16694.884027
siesta:       Ekinion =       0.000000
siesta:         Total =  -13771.679065

siesta: Atomic forces (eV/Ang):
siesta:      1    0.006898   -0.013814    0.000000
siesta:      2    0.709987    0.387192    0.000000
siesta:      3    0.012484    0.015300    0.000000
siesta:      4    0.005350   -0.809052    0.000000
siesta:      5    0.709595   -0.397775    0.000000
siesta:      6    0.708127    0.405744    0.000000
siesta:      7    0.023476   -0.013949    0.000000
siesta:      8    0.705219    0.411738    0.000000
siesta:      9    0.013328    0.007489    0.000000
siesta:     10   -0.003825   -0.012565    0.000000
siesta:     11   -0.699082   -0.421162    0.000000
siesta:     12    0.010495   -0.824035    0.000000
siesta:     13    0.733100   -0.402062    0.000000
siesta:     14   -0.026579   -0.030768    0.000000
siesta:     15   -0.706752   -0.401062    0.000000
siesta:     16    0.021055   -0.830768    0.000000
siesta:     17    0.705542   -0.420380    0.000000
siesta:     18   -0.010380   -0.010489    0.000000
siesta:     19   -0.685275    0.406883    0.000000
siesta:     20    0.024368    0.795592    0.000000
siesta:     21    0.671398    0.398468    0.000000
siesta:     22   -0.005111    0.018364    0.000000
siesta:     23   -0.690751    0.388484    0.000000
siesta:     24    0.002574    0.798036    0.000000
siesta:     25   -0.004940   -0.021575    0.000000
siesta:     26   -0.702708   -0.392271    0.000000
siesta:     27    0.014100   -0.812933    0.000000
siesta:     28    0.694486   -0.415095    0.000000
siesta:     29    0.025415    0.001557    0.000000
siesta:     30   -0.703104    0.392093    0.000000
siesta:     31    0.001095    0.799976    0.000000
siesta:     32    0.711958    0.405494    0.000000
siesta:     33    0.035739   -0.014198    0.000000
siesta:     34   -0.015010    0.004905    0.000000
siesta:     35   -0.701170   -0.417252    0.000000
siesta:     36    0.007490   -0.806764    0.000000
siesta:     37    0.732655   -0.399967    0.000000
siesta:     38   -0.669770    0.407275    0.000000
siesta:     39    0.032562    0.817775    0.000000
siesta:     40    0.670523    0.398420    0.000000
siesta:     41   -0.009838    0.030295    0.000000
siesta:     42   -0.005655    0.005195    0.000000
siesta:     43   -0.698860   -0.417539    0.000000
siesta:     44   -0.009412   -0.010906    0.000000
siesta:     45   -0.019500   -0.018970    0.000000
siesta:     46   -0.705462   -0.393498    0.000000
siesta:     47   -0.690075    0.407810    0.000000
siesta:     48   -0.004861    0.803966    0.000000
siesta:     49    0.013349   -0.812609    0.000000
siesta:     50    0.695801   -0.416237    0.000000
siesta:     51   -0.689596    0.392104    0.000000
siesta:     52   -0.000446    0.816861    0.000000
siesta:     53    0.019905    0.002627    0.000000
siesta:     54   -0.032427    0.014722    0.000000
siesta:     55    0.535928    0.323261    0.000000
siesta:     56    0.544514   -0.308530    0.000000
siesta:     57    0.043083   -0.549805    0.000000
siesta:     58    0.005455    0.581509    0.000000
siesta:     59   -0.486006    0.318748    0.000000
siesta:     60    0.007556    0.564994    0.000000
siesta:     61   -0.507698    0.319383    0.000000
siesta:     62    0.531590   -0.313217    0.000000
siesta:     63    0.011450   -0.560069    0.000000
siesta:     64   -0.521162   -0.308111    0.000000
siesta:     65    0.574593    0.321026    0.000000
siesta:     66   -0.022296    0.582910    0.000000
siesta:     67   -0.510243    0.324100    0.000000
siesta:     68    0.507952   -0.303824    0.000000
siesta:     69    0.009271   -0.560873    0.000000
siesta:     70   -0.522029   -0.306740    0.000000
siesta:     71    0.540908    0.330553    0.000000
siesta:     72   -0.556722   -0.302510    0.000000
siesta: ----------------------------------------
siesta:    Tot    0.413625   -0.050523    0.000000

siesta: Stress tensor (static) (eV/Ang**3):
siesta:     0.007717   -0.000160    0.000000
siesta:    -0.000160    0.007991    0.000000
siesta:     0.000000    0.000000    0.000138

siesta: Cell volume =       1893.226895 Ang**3

siesta: Pressure (static):
siesta:                Solid            Molecule  Units
siesta:          -0.00005752         -0.00011019  Ry/Bohr**3
siesta:          -0.00528169         -0.01011750  eV/Ang**3
siesta:          -8.46229549        -16.21020384  kBar
(Free)E+ p_basis*V_orbitals  =      -13743.562214
(Free)Eharris+ p_basis*V_orbitals  =      -13743.562100

siesta: Electric dipole (a.u.)  =    0.000000    0.000000    0.000000
siesta: Electric dipole (Debye) =    0.000000    0.000000    0.000000

* Maximum dynamic memory allocated : Node    0 =   222 MB
* Maximum dynamic memory allocated : Node    1 =   140 MB
* Maximum dynamic memory allocated : Node    2 =   141 MB
* Maximum dynamic memory allocated : Node    3 =   212 MB
* Maximum dynamic memory allocated : Node    4 =   218 MB
* Maximum dynamic memory allocated : Node    5 =   136 MB
* Maximum dynamic memory allocated : Node    6 =   137 MB
* Maximum dynamic memory allocated : Node    7 =   212 MB
* Maximum dynamic memory allocated : Node    8 =   218 MB
* Maximum dynamic memory allocated : Node    9 =   136 MB
* Maximum dynamic memory allocated : Node   10 =   137 MB
* Maximum dynamic memory allocated : Node   11 =   212 MB

* Maximum memory occured during cdiag                         

timer: CPU execution times:
timer:  Routine       Calls   Time/call    Tot.time        %
timer:  siesta            1    1305.868    1305.868   100.00
timer:  Setup             1       3.379       3.379     0.26
timer:  bands             1       0.010       0.010     0.00
timer:  writewave         1       0.024       0.024     0.00
timer:  KSV_init          1       0.007       0.007     0.00
timer:  IterMD            1    1295.984    1295.984    99.24
timer:  hsparse           1       0.177       0.177     0.01
timer:  overlap           1       7.676       7.676     0.59
timer:  IterSCF           1    1189.914    1189.914    91.12
timer:  kinefsm           2       3.872       7.744     0.59
timer:  nlefsm            2      18.132      36.264     2.78
timer:  DHSCF             2      74.414     148.828    11.40
timer:  DHSCF1            1       0.901       0.901     0.07
timer:  DHSCF2            1      23.212      23.212     1.78
timer:  REORD            18       0.002       0.040     0.00
timer:  POISON            3       0.475       1.425     0.11
timer:  DHSCF3            2      52.595     105.189     8.06
timer:  rhoofd            2      10.556      21.112     1.62
timer:  cellXC            2       2.442       4.883     0.37
timer:  vmat              2      25.171      50.341     3.86
timer:  MolMec            2       0.000       0.000     0.00
timer:  diagon            1    1073.645    1073.645    82.22
timer:  cdiag            40      17.986     692.250    53.01
timer:  cdiag1           40       0.877      33.745     2.58
timer:  cdiag2           40       3.043     117.113     8.97
timer:  cdiag3           40      13.851     533.106    40.82
timer:  cdiag4           40       0.212       8.151     0.62
timer:  DHSCF4            1      19.482      19.482     1.49
timer:  dfscf             1      18.075      18.075     1.38
timer:  overfsm           1       0.264       0.264     0.02
timer:  optical           1       5.955       5.955     0.46
  

elaps: ELAPSED times:
elaps:  Routine       Calls   Time/call    Tot.time        %
elaps:  siesta            1     109.088     109.088   100.00
elaps:  Setup             1       0.282       0.282     0.26
elaps:  bands             1       0.001       0.001     0.00
elaps:  writewave         1       0.002       0.002     0.00
elaps:  KSV_init          1       0.000       0.000     0.00
elaps:  IterMD            1     108.262     108.262    99.24
elaps:  hsparse           1       0.018       0.018     0.02
elaps:  overlap           1       0.705       0.705     0.65
elaps:  IterSCF           1      99.403      99.403    91.12
elaps:  kinefsm           2       0.358       0.716     0.66
elaps:  nlefsm            2       1.575       3.150     2.89
elaps:  DHSCF             2       6.910      13.819    12.67
elaps:  DHSCF1            1       0.077       0.077     0.07
elaps:  DHSCF2            1       1.938       1.938     1.78
elaps:  REORD            18       0.000       0.006     0.01
elaps:  POISON            3       0.040       0.121     0.11
elaps:  DHSCF3            2       4.393       8.787     8.05
elaps:  rhoofd            2       1.557       3.114     2.85
elaps:  cellXC            2       0.204       0.407     0.37
elaps:  vmat              2       2.102       4.204     3.85
elaps:  MolMec            2       0.000       0.000     0.00
elaps:  diagon            1      89.690      89.690    82.22
elaps:  cdiag            40       1.470      58.802    53.90
elaps:  cdiag1           40       0.071       2.826     2.59
elaps:  cdiag2           40       0.244       9.777     8.96
elaps:  cdiag3           40       1.136      45.433    41.65
elaps:  cdiag4           40       0.019       0.757     0.69
elaps:  DHSCF4            1       3.013       3.013     2.76
elaps:  dfscf             1       2.831       2.831     2.60
elaps:  overfsm           1       0.027       0.027     0.02
elaps:  optical           1       0.000       0.000     0.00
  
>> End of run:   6-APR-2016  14:55:29
