Siesta Version:                                        siesta-3.2-pl-3
Architecture  : x86_64-unknown-linux-gnu--unknown
Compiler flags: mpiifort -g -O2 -fPIC -xSSE4.1 -fp-model source -shared-intel 
PARALLEL version

* Running on    8 nodes in parallel
>> Start of run:  25-APR-2016  12:39:05

                           ***********************       
                           *  WELCOME TO SIESTA  *       
                           ***********************       

reinit: Reading from standard input
************************** Dump of input data file ****************************
#(1) General system descriptors
SystemName            GRP_doping    # Descriptive name of the system
SystemLabel           GRP_doping    # Short name for naming files
%include STRUCT.fdf
%include KPT.fdf
%include BASIS.fdf
#%include TS.fdf # for transiesta calculation
#(4) DFT, Grid, SCF
XC.functional         GGA           # LDA or GGA (default = LDA)
XC.authors            PBE           # CA (Ceperley-Aldr) = PZ
                                    #    (Perdew-Zunger) - LDA - Default
                                    # PW92 (Perdew-Wang-92) - LDA
                                    # PBE (Perdew-Burke-Ernzerhof) - GGA
MeshCutoff            200.000000    Ry      # Default: 50.0 Ry ~ 0.444 Bohr
                                    #         100.0 Ry ~ 0.314 Bohr
MaxSCFIterations      500           # Default: 50
DM.MixingWeight       0.05          # Default: 0.25
DM.NumberPulay        10            # Default: 0
DM.PulayOnFile        F             # SystemLabel.P1, SystemLabel.P2
DM.Tolerance          1.d-4         # Default: 1.d-4
DM.UseSaveDM          .true.        # because of the bug
SCFMustConverge       .true.
NeglNonOverlapInt     F             # Default: F
#(5) Eigenvalue problem: order-N or diagonalization
SolutionMethod        Diagon        # or Transiesta
ElectronicTemperature 300.0 K       # Default: 300.0 K
#(6) Molecular dynamics and relaxations
#MD.TypeOfRun          CG            # Type of dynamics:
#MD.VariableCell       F
#MD.NumCGsteps         0           # 0 for single-point / 100 for gopt
#MD.MaxCGDispl         0.2 Bohr      # Default: 0.2 Bohr
#MD.MaxForceTol        0.02 eV/Ang   # Default: 0.04 eV/Ang
#MD.MaxStressTol       1.0 GPa       # Default: 1.0 GPa
# Geometry Constraints
#%block GeometryConstraints
#	position from 1 to 44
#%endblock GeometryConstraints
BandLinesScale   pi/a
%block BandLines
 1   0.00000000  0.00000000  0.00000000
50   0.00000000  0.07809418  0.00000000
50   0.04509075  0.07809242  0.00000000
20   0.00000000  0.00000000  0.00000000
%endblock BandLines
************************** End of input data file *****************************

reinit: -----------------------------------------------------------------------
reinit: System Name: GRP_doping
reinit: -----------------------------------------------------------------------
reinit: System Label: GRP_doping                                                  
reinit: -----------------------------------------------------------------------

initatom: Reading input for the pseudopotentials and atomic orbitals ----------
 Species number:            1  Label: B Atomic number:           5
 Species number:            2  Label: C Atomic number:           6
Ground state valence configuration:   2s02  2p01
Reading pseudopotential information in formatted form from B.psf

Valence configuration for pseudopotential generation:
2s( 2.00) rc: 1.74
2p( 1.00) rc: 1.74
3d( 0.00) rc: 1.74
4f( 0.00) rc: 1.74
Ground state valence configuration:   2s02  2p02
Reading pseudopotential information in formatted form from C.psf

Valence configuration for pseudopotential generation:
2s( 2.00) rc: 1.54
2p( 2.00) rc: 1.54
3d( 0.00) rc: 1.54
4f( 0.00) rc: 1.54
For B, standard SIESTA heuristics set lmxkb to 3
 (one more than the basis l, including polarization orbitals).
Use PS.lmax or PS.KBprojectors blocks to override.
For C, standard SIESTA heuristics set lmxkb to 3
 (one more than the basis l, including polarization orbitals).
Use PS.lmax or PS.KBprojectors blocks to override.

<basis_specs>
===============================================================================
B                    Z=   5    Mass=  10.810        Charge= 0.17977+309
Lmxo=1 Lmxkb= 3    BasisType=split      Semic=F
L=0  Nsemic=0  Cnfigmx=2
          n=1  nzeta=2  polorb=0
            splnorm:   0.15000    
               vcte:    0.0000    
               rinn:    0.0000    
                rcs:    0.0000      0.0000    
            lambdas:    1.0000      1.0000    
L=1  Nsemic=0  Cnfigmx=2
          n=1  nzeta=2  polorb=1
            splnorm:   0.15000    
               vcte:    0.0000    
               rinn:    0.0000    
                rcs:    0.0000      0.0000    
            lambdas:    1.0000      1.0000    
-------------------------------------------------------------------------------
L=0  Nkbl=1  erefs: 0.17977+309
L=1  Nkbl=1  erefs: 0.17977+309
L=2  Nkbl=1  erefs: 0.17977+309
L=3  Nkbl=1  erefs: 0.17977+309
===============================================================================
</basis_specs>

atom: Called for B                     (Z =   5)

read_vps: Pseudopotential generation method:
read_vps: ATM3      Troullier-Martins                       
Total valence charge:    3.00000

read_vps: Pseudopotential includes a core correction:
read_vps: Pseudo-core for xc-correction

xc_check: Exchange-correlation functional:
xc_check: GGA Perdew, Burke & Ernzerhof 1996
V l=0 = -2*Zval/r beyond r=  1.7165
V l=1 = -2*Zval/r beyond r=  1.7165
V l=2 = -2*Zval/r beyond r=  1.7165
V l=3 = -2*Zval/r beyond r=  1.6951
All V_l potentials equal beyond r=  1.7165
This should be close to max(r_c) in ps generation
All pots = -2*Zval/r beyond r=  1.7165

VLOCAL1: 99.0% of the norm of Vloc inside     14.733 Ry
VLOCAL1: 99.9% of the norm of Vloc inside     33.577 Ry
atom: Maximum radius for 4*pi*r*r*local-pseudopot. charge    2.04484
atom: Maximum radius for r*vlocal+2*Zval:    1.75994
GHOST: No ghost state for L =  0
GHOST: No ghost state for L =  1
GHOST: No ghost state for L =  2
GHOST: No ghost state for L =  3

KBgen: Kleinman-Bylander projectors: 
   l= 0   rc=  1.897051   el= -0.693730   Ekb=  4.595746   kbcos=  0.286105
   l= 1   rc=  1.920920   el= -0.265236   Ekb= -2.350715   kbcos= -0.315747
   l= 2   rc=  2.044840   el=  0.002055   Ekb= -0.690767   kbcos= -0.013822
   l= 3   rc=  2.149707   el=  0.003188   Ekb= -0.315358   kbcos= -0.002055

KBgen: Total number of  Kleinman-Bylander projectors:   16
atom: -------------------------------------------------------------------------

atom: SANKEY-TYPE ORBITALS:
atom: Selected multiple-zeta basis: split     

SPLIT: Orbitals with angular momentum L= 0

SPLIT: Basis orbitals for state 2s

SPLIT: PAO cut-off radius determined from an
SPLIT: energy shift=  0.007350 Ry

   izeta = 1
                 lambda =    1.000000
                     rc =    5.422032
                 energy =   -0.686029
                kinetic =    0.576707
    potential(screened) =   -1.262736
       potential(ionic) =   -3.271094

   izeta = 2
                 rmatch =    4.222573
              splitnorm =    0.150000
                 energy =   -0.602132
                kinetic =    0.858975
    potential(screened) =   -1.461107
       potential(ionic) =   -3.582536

SPLIT: Orbitals with angular momentum L= 1

SPLIT: Basis orbitals for state 2p

SPLIT: PAO cut-off radius determined from an
SPLIT: energy shift=  0.007350 Ry

   izeta = 1
                 lambda =    1.000000
                     rc =    6.790259
                 energy =   -0.258578
                kinetic =    1.481412
    potential(screened) =   -1.739989
       potential(ionic) =   -3.657461

   izeta = 2
                 rmatch =    4.608740
              splitnorm =    0.150000
                 energy =   -0.173757
                kinetic =    2.186690
    potential(screened) =   -2.360447
       potential(ionic) =   -4.464260

POLgen: Perturbative polarization orbital with L=  2

POLgen: Polarization orbital for state 2p

   izeta = 1
                     rc =    6.790259
                 energy =    0.684082
                kinetic =    1.471481
    potential(screened) =   -0.787399
       potential(ionic) =   -2.406985
atom: Total number of Sankey-type orbitals: 13

atm_pop: Valence configuration (for local Pseudopot. screening):
 2s( 2.00)                                                            
 2p( 1.00)                                                            
Vna: chval, zval:    3.00000   3.00000

Vna:  Cut-off radius for the neutral-atom potential:   6.790259
comcore: Pseudo-core radius Rcore=  2.122997

atom: _________________________________________________________________________

<basis_specs>
===============================================================================
C                    Z=   6    Mass=  12.010        Charge= 0.17977+309
Lmxo=1 Lmxkb= 3    BasisType=split      Semic=F
L=0  Nsemic=0  Cnfigmx=2
          n=1  nzeta=2  polorb=0
            splnorm:   0.15000    
               vcte:    0.0000    
               rinn:    0.0000    
                rcs:    0.0000      0.0000    
            lambdas:    1.0000      1.0000    
L=1  Nsemic=0  Cnfigmx=2
          n=1  nzeta=2  polorb=1
            splnorm:   0.15000    
               vcte:    0.0000    
               rinn:    0.0000    
                rcs:    0.0000      0.0000    
            lambdas:    1.0000      1.0000    
-------------------------------------------------------------------------------
L=0  Nkbl=1  erefs: 0.17977+309
L=1  Nkbl=1  erefs: 0.17977+309
L=2  Nkbl=1  erefs: 0.17977+309
L=3  Nkbl=1  erefs: 0.17977+309
===============================================================================
</basis_specs>

atom: Called for C                     (Z =   6)

read_vps: Pseudopotential generation method:
read_vps: ATM3      Troullier-Martins                       
Total valence charge:    4.00000

read_vps: Pseudopotential includes a core correction:
read_vps: Pseudo-core for xc-correction

xc_check: Exchange-correlation functional:
xc_check: GGA Perdew, Burke & Ernzerhof 1996
V l=0 = -2*Zval/r beyond r=  1.5227
V l=1 = -2*Zval/r beyond r=  1.5227
V l=2 = -2*Zval/r beyond r=  1.5227
V l=3 = -2*Zval/r beyond r=  1.5038
All V_l potentials equal beyond r=  1.5227
This should be close to max(r_c) in ps generation
All pots = -2*Zval/r beyond r=  1.5227

VLOCAL1: 99.0% of the norm of Vloc inside     18.722 Ry
VLOCAL1: 99.9% of the norm of Vloc inside     42.668 Ry
atom: Maximum radius for 4*pi*r*r*local-pseudopot. charge    1.83678
atom: Maximum radius for r*vlocal+2*Zval:    1.58088
GHOST: No ghost state for L =  0
GHOST: No ghost state for L =  1
GHOST: No ghost state for L =  2
GHOST: No ghost state for L =  3

KBgen: Kleinman-Bylander projectors: 
   l= 0   rc=  1.704034   el= -1.009801   Ekb=  5.335044   kbcos=  0.316824
   l= 1   rc=  1.704034   el= -0.388707   Ekb= -3.785862   kbcos= -0.366464
   l= 2   rc=  1.791422   el=  0.001971   Ekb= -0.970471   kbcos= -0.009212
   l= 3   rc=  1.859892   el=  0.003065   Ekb= -0.399525   kbcos= -0.001223

KBgen: Total number of  Kleinman-Bylander projectors:   16
atom: -------------------------------------------------------------------------

atom: SANKEY-TYPE ORBITALS:
atom: Selected multiple-zeta basis: split     

SPLIT: Orbitals with angular momentum L= 0

SPLIT: Basis orbitals for state 2s

SPLIT: PAO cut-off radius determined from an
SPLIT: energy shift=  0.007350 Ry

   izeta = 1
                 lambda =    1.000000
                     rc =    4.632753
                 energy =   -1.002270
                kinetic =    0.855760
    potential(screened) =   -1.858031
       potential(ionic) =   -5.417575

   izeta = 2
                 rmatch =    3.431921
              splitnorm =    0.150000
                 energy =   -0.867111
                kinetic =    1.300804
    potential(screened) =   -2.167915
       potential(ionic) =   -5.962684

SPLIT: Orbitals with angular momentum L= 1

SPLIT: Basis orbitals for state 2p

SPLIT: PAO cut-off radius determined from an
SPLIT: energy shift=  0.007350 Ry

   izeta = 1
                 lambda =    1.000000
                     rc =    5.658549
                 energy =   -0.381140
                kinetic =    2.399701
    potential(screened) =   -2.780841
       potential(ionic) =   -6.206085

   izeta = 2
                 rmatch =    3.653288
              splitnorm =    0.150000
                 energy =   -0.249149
                kinetic =    3.542762
    potential(screened) =   -3.791911
       potential(ionic) =   -7.581078

POLgen: Perturbative polarization orbital with L=  2

POLgen: Polarization orbital for state 2p

   izeta = 1
                     rc =    5.658549
                 energy =    1.109913
                kinetic =    2.304789
    potential(screened) =   -1.194876
       potential(ionic) =   -4.013592
atom: Total number of Sankey-type orbitals: 13

atm_pop: Valence configuration (for local Pseudopot. screening):
 2s( 2.00)                                                            
 2p( 2.00)                                                            
Vna: chval, zval:    4.00000   4.00000

Vna:  Cut-off radius for the neutral-atom potential:   5.658549
comcore: Pseudo-core radius Rcore=  1.791422

atom: _________________________________________________________________________

prinput: Basis input ----------------------------------------------------------

PAO.BasisType split     

%block ChemicalSpeciesLabel
    1    5 B                       # Species index, atomic number, species label
    2    6 C                       # Species index, atomic number, species label
%endblock ChemicalSpeciesLabel

%block PAO.Basis                 # Define Basis set
B                     2                    # Species label, number of l-shells
 n=2   0   2                         # n, l, Nzeta 
   5.422      4.223   
   1.000      1.000   
 n=2   1   2 P   1                   # n, l, Nzeta, Polarization, NzetaPol
   6.790      4.609   
   1.000      1.000   
C                     2                    # Species label, number of l-shells
 n=2   0   2                         # n, l, Nzeta 
   4.633      3.432   
   1.000      1.000   
 n=2   1   2 P   1                   # n, l, Nzeta, Polarization, NzetaPol
   5.659      3.653   
   1.000      1.000   
%endblock PAO.Basis

prinput: ----------------------------------------------------------------------

coor:   Atomic-coordinates input format  =     Fractional

siesta: Atomic coordinates (Bohr) and species
siesta:     -2.35420  38.89134   0.00000  1        1
siesta:      2.30256  38.89134   0.00000  1        2
siesta:      4.63094  34.85847   0.00000  1        3
siesta:      4.63094  37.54693   0.00000  1        4
siesta:      6.95932  33.51406   0.00000  1        5
siesta:     -4.68258  34.85847   0.00000  1        6
siesta:     -2.35420  14.69411   0.00000  1        7
siesta:     -2.35420  17.38257   0.00000  1        8
siesta:      2.30256  25.44831   0.00000  1        9
siesta:     -4.68258  18.72698   0.00000  1       10
siesta:     -4.68258  21.41544   0.00000  1       11
siesta:     -7.01096  22.75985   0.00000  1       12
siesta:     -7.01096  25.44831   0.00000  1       13
siesta:     -0.02582  26.79272   0.00000  1       14
siesta:     -0.02582  29.48119   0.00000  1       15
siesta:     -4.68258  26.79272   0.00000  1       16
siesta:     -4.68258  29.48119   0.00000  1       17
siesta:     -2.35420  30.82560   0.00000  1       18
siesta:     -2.35420  33.51406   0.00000  1       19
siesta:     -7.01096  30.82560   0.00000  1       20
siesta:     -0.02582  34.85847   0.00000  1       21
siesta:     -0.02582  37.54693   0.00000  1       22
siesta:     -0.02582   2.59549   0.00000  2       23
siesta:     -0.02582   5.28395   0.00000  2       24
siesta:     -2.35420  41.57980   0.00000  2       25
siesta:      2.30256  41.57980   0.00000  2       26
siesta:      6.95932  30.82560   0.00000  2       27
siesta:      9.28770  26.79272   0.00000  2       28
siesta:      9.28770  29.48119   0.00000  2       29
siesta:     -4.68258  37.54693   0.00000  2       30
siesta:      2.30256   6.62836   0.00000  2       31
siesta:      2.30256   9.31683   0.00000  2       32
siesta:      4.63094  10.66124   0.00000  2       33
siesta:      4.63094  13.34970   0.00000  2       34
siesta:      6.95932  14.69411   0.00000  2       35
siesta:      6.95932  17.38257   0.00000  2       36
siesta:      9.28770  18.72698   0.00000  2       37
siesta:      9.28770  21.41544   0.00000  2       38
siesta:     11.61608  22.75985   0.00000  2       39
siesta:     11.61608  25.44831   0.00000  2       40
siesta:     -2.35420   6.62836   0.00000  2       41
siesta:     -2.35420   9.31683   0.00000  2       42
siesta:     -0.02582  10.66124   0.00000  2       43
siesta:     -0.02582  13.34970   0.00000  2       44
siesta:      2.30256  14.69411   0.00000  2       45
siesta:      2.30256  17.38257   0.00000  2       46
siesta:      4.63094  18.72698   0.00000  2       47
siesta:      4.63094  21.41544   0.00000  2       48
siesta:      6.95932  22.75985   0.00000  2       49
siesta:      6.95932  25.44831   0.00000  2       50
siesta:     -4.68258  10.66124   0.00000  2       51
siesta:     -4.68258  13.34970   0.00000  2       52
siesta:     -0.02582  18.72698   0.00000  2       53
siesta:     -0.02582  21.41544   0.00000  2       54
siesta:      2.30256  22.75985   0.00000  2       55
siesta:     -7.01096  14.69411   0.00000  2       56
siesta:     -7.01096  17.38257   0.00000  2       57
siesta:     -2.35420  22.75985   0.00000  2       58
siesta:     -2.35420  25.44831   0.00000  2       59
siesta:     -9.33934  18.72698   0.00000  2       60
siesta:     -9.33934  21.41544   0.00000  2       61
siesta:    -11.66772  22.75985   0.00000  2       62
siesta:    -11.66772  25.44831   0.00000  2       63
siesta:     -9.33934  26.79272   0.00000  2       64
siesta:     -9.33934  29.48119   0.00000  2       65
siesta:      4.63094  26.79272   0.00000  2       66
siesta:      4.63094  29.48119   0.00000  2       67
siesta:      2.30256  30.82560   0.00000  2       68
siesta:      2.30256  33.51406   0.00000  2       69
siesta:     -7.01096  33.51406   0.00000  2       70
siesta:     -0.02582  42.92421   0.00000  2       71
siesta:     -0.02582  45.61267   0.00000  2       72

siesta: System type = slab      

initatomlists: Number of atoms, orbitals, and projectors:     72   936  1152

siesta: ******************** Simulation parameters ****************************
siesta:
siesta: The following are some of the parameters of the simulation.
siesta: A complete list of the parameters used, including default values,
siesta: can be found in file out.fdf
siesta:
redata: Non-Collinear-spin run           =     F
redata: SpinPolarized (Up/Down) run      =     F
redata: Number of spin components        =     1
redata: Long output                      =     F
redata: Number of Atomic Species         =        2
redata: Charge density info will appear in .RHO file
redata: Write Mulliken Pop.              =     NO
redata: Mesh Cutoff                      =   200.0000  Ry
redata: Net charge of the system         =     0.0000 |e|
redata: Max. number of SCF Iter          =      500
redata: SCF convergence failure will abort job
redata: Performing Pulay mixing using    =    10 iterations
redata: Mix DM in first SCF step ?       =     F
redata: Write Pulay info on disk?        =     F
redata: Discard 1st Pulay DM after  kick =     F
redata: New DM Mixing Weight             =     0.0500
redata: New DM Occupancy tolerance       = 0.000000000001
redata: No kicks to SCF
redata: DM Mixing Weight for Kicks       =     0.5000
redata: DM Tolerance for SCF             =     0.000100
redata: Require Energy convergence for SCF =     F
redata: DM Energy tolerance for SCF      =     0.000100 eV
redata: Require Harris convergence for SCF =     F
redata: DM Harris energy tolerance for SCF =     0.000100 eV
redata: Using Saved Data (generic)   =     F
redata: Use continuation files for DM    =     T
redata: Neglect nonoverlap interactions  =     F
redata: Method of Calculation            =     Diagonalization
redata: Divide and Conquer               =     T
redata: Electronic Temperature           =     0.0019  Ry
redata: Fix the spin of the system       =     F
redata: Dynamics option                  =     Verlet MD run
redata: Initial MD time step             =        1
redata:   Final MD time step             =        1
redata: Length of MD time step           =     1.0000  fs
redata: Initial Temperature of MD run    =     0.0000  K
redata: Perform a MD quench              =     F
redata: ***********************************************************************
Total number of electrons:   266.000000
Total ionic charge:   266.000000

* ProcessorY, Blocksize:    2  24

k-point displ. along   1 input, could be:     0.50    0.00
k-point displ. along   2 input, could be:     0.50    0.00
 Kpoints in:          231 . Kpoints trimmed:          231

siesta: k-grid: Number of k-points =   231
siesta: k-grid: Cutoff (effective) =     5.000 Ang
siesta: k-grid: Supercell and displacements
siesta: k-grid:   21   0   0      0.500
siesta: k-grid:    0  21   0      0.500
siesta: k-grid:    0   0   1      0.000
Naive supercell factors:     2    2    2

superc: Internal auxiliary supercell:     2 x     2 x     2  =       8
superc: Number of atoms, orbitals, and projectors:    576   7488   9216

* Maximum dynamic memory allocated =     4 MB

siesta:                 ==============================
                            Begin MD step =      1
                        ==============================

superc: Internal auxiliary supercell:     2 x     2 x     2  =       8
superc: Number of atoms, orbitals, and projectors:    576   7488   9216

outcell: Unit cell vectors (Ang):
       12.804619    7.392750    0.000000
        0.000000   14.785500    0.000000
        0.000000    0.000000   10.000000

outcell: Cell vector modules (Ang)   :   14.785500   14.785500   10.000000
outcell: Cell angles (23,13,12) (deg):     90.0000     90.0000     60.0000
outcell: Cell volume (Ang**3)        :   1893.2269
New_DM. Step:     1
Initializing Density Matrix...

InitMesh: MESH =   120 x   120 x    90 =     1296000
InitMesh: Mesh cutoff (required, used) =   200.000   223.865 Ry

* Maximum dynamic memory allocated =   233 MB

stepf: Fermi-Dirac step function

siesta: Program's energy decomposition (eV):
siesta: Ebs     =     -5499.189660
siesta: Eions   =     15585.763425
siesta: Ena     =      4195.079291
siesta: Ekin    =      5217.942150
siesta: Enl     =       834.174338
siesta: DEna    =        -0.000007
siesta: DUscf   =         0.000000
siesta: DUext   =         0.000000
siesta: Exc     =     -4196.710152
siesta: eta*DQ  =         0.000000
siesta: Emadel  =         0.000000
siesta: Emeta   =         0.000000
siesta: Emolmec =         0.000000
siesta: Ekinion =         0.000000
siesta: Eharris =     -9348.611193
siesta: Etot    =     -9535.277805
siesta: FreeEng =     -9535.277805

siesta: iscf   Eharris(eV)      E_KS(eV)   FreeEng(eV)   dDmax  Ef(eV)
siesta:    1    -9348.6112    -9535.2778    -9535.2778  7.2490 -8.4239
timer: Routine,Calls,Time,% = IterSCF        1    4622.408  99.75
elaps: Routine,Calls,Wall,% = IterSCF        1     578.546  99.75
siesta:    2   -15115.7752    -8464.3203    -8464.3781 19.4985 -5.2248
siesta:    3    -9340.9000    -9375.9558    -9375.9588  2.5192 -6.3136
siesta:    4    -9296.6836    -9293.3136    -9293.3476  1.6487 -5.6815
siesta:    5    -9226.9980    -9216.0616    -9216.1046  1.3419 -5.4937
siesta:    6    -9196.5853    -9181.7491    -9181.7514  1.2243 -5.4667
siesta:    7    -9189.0715    -9168.0207    -9168.0307  1.0732 -5.4122
siesta:    8    -9186.9323    -9162.8762    -9162.9425  1.0179 -5.3957
siesta:    9    -9184.6189    -9155.4610    -9155.5224  1.0021 -5.3406
siesta:   10    -9183.4537    -9150.3963    -9150.4584  0.9385 -5.3005
siesta:   11    -9181.9940    -9150.4466    -9150.4990  0.3905 -5.3192
siesta:   12    -9182.3537    -9151.5378    -9151.6073  0.5353 -5.2634
siesta:   13    -9183.2343    -9149.8469    -9149.8950  0.3724 -5.2668
siesta:   14    -9182.0956    -9151.4801    -9151.5236  0.3371 -5.2427
siesta:   15    -9181.6953    -9151.9947    -9152.0431  0.2811 -5.2442
siesta:   16    -9181.0665    -9158.1919    -9158.2460  0.3122 -5.2891
siesta:   17    -9180.7895    -9165.2686    -9165.3342  0.3435 -5.3628
siesta:   18    -9180.7287    -9167.7100    -9167.7799  0.1785 -5.3756
siesta:   19    -9180.6822    -9172.1789    -9172.2493  0.1565 -5.3891
siesta:   20    -9180.6719    -9172.5199    -9172.6030  0.1307 -5.3992
siesta:   21    -9180.6927    -9175.6240    -9175.6995  0.2008 -5.3938
siesta:   22    -9180.6698    -9177.2298    -9177.2994  0.1966 -5.3968
siesta:   23    -9180.6445    -9177.9383    -9178.0077  0.1757 -5.3821
siesta:   24    -9180.6297    -9178.0791    -9178.1479  0.1547 -5.3795
siesta:   25    -9180.6130    -9178.6971    -9178.7652  0.1369 -5.3767
siesta:   26    -9180.6002    -9178.9675    -9179.0356  0.1170 -5.3743
siesta:   27    -9180.5975    -9180.2825    -9180.3513  0.1079 -5.3730
siesta:   28    -9180.5817    -9180.6632    -9180.7325  0.0661 -5.3700
siesta:   29    -9180.5809    -9180.8910    -9180.9634  0.0711 -5.3705
siesta:   30    -9180.5743    -9182.0210    -9182.0932  0.1701 -5.3535
siesta:   31    -9180.5706    -9180.9735    -9181.0578  0.0207 -5.3664
siesta:   32    -9180.5687    -9181.0566    -9181.1323  0.0073 -5.3647
siesta:   33    -9180.5690    -9180.9787    -9181.0559  0.0182 -5.3655
siesta:   34    -9180.5664    -9180.7130    -9180.7895  0.0276 -5.3638
siesta:   35    -9180.5668    -9180.7333    -9180.8123  0.0178 -5.3650
siesta:   36    -9180.5668    -9180.7250    -9180.8035  0.0164 -5.3655
siesta:   37    -9180.5670    -9180.6895    -9180.7678  0.0096 -5.3658
siesta:   38    -9180.5675    -9180.5713    -9180.6493  0.0031 -5.3662
siesta:   39    -9180.5677    -9180.5595    -9180.6369  0.0027 -5.3662
siesta:   40    -9180.5676    -9180.6247    -9180.7019  0.0022 -5.3661
siesta:   41    -9180.5677    -9180.5601    -9180.6374  0.0010 -5.3661
siesta:   42    -9180.5676    -9180.5800    -9180.6572  0.0007 -5.3661
siesta:   43    -9180.5676    -9180.5633    -9180.6405  0.0003 -5.3660
siesta:   44    -9180.5676    -9180.5669    -9180.6442  0.0003 -5.3660
siesta:   45    -9180.5676    -9180.5785    -9180.6558  0.0003 -5.3660
siesta:   46    -9180.5676    -9180.5785    -9180.6558  0.0001 -5.3661
siesta:   47    -9180.5676    -9180.5774    -9180.6546  0.0001 -5.3661

siesta: E_KS(eV) =            -9180.5752

siesta: E_KS - E_eggbox =     -9180.5752

siesta: Atomic forces (eV/Ang):
----------------------------------------
   Tot    0.033940   -0.114122    0.000000
----------------------------------------
   Max  560.071501
   Res  138.917838    sqrt( Sum f_i^2 / 3N )
----------------------------------------
   Max  560.071501    constrained

Stress-tensor-Voigt (kbar):     -720.83    -2547.57       -0.65        4.02        0.00        0.00
(Free)E + p*V (eV/cell)    -7893.0347
Target enthalpy (eV/cell)    -9180.6525

siesta: Stress tensor (static) (eV/Ang**3):
        -0.449900    0.002509    0.000000
         0.002509   -1.590049    0.000000
         0.000000    0.000000   -0.000405

siesta: Pressure (static):       1089.68104055  kBar

siesta: Stress tensor (total) (eV/Ang**3):
        -0.449900    0.002509    0.000000
         0.002509   -1.590049    0.000000
         0.000000    0.000000   -0.000405

siesta: Pressure (total):       1089.68104055  kBar

siesta: Temp_ion =       0.000 K

* Maximum dynamic memory allocated =   250 MB
Computing bands...

siesta: Program's energy decomposition (eV):
siesta: Ebs     =     -4101.609629
siesta: Eions   =     15585.763425
siesta: Ena     =      4195.079291
siesta: Ekin    =      8026.194552
siesta: Enl     =      -797.261084
siesta: DEna    =      -759.946540
siesta: DUscf   =       102.262308
siesta: DUext   =         0.000000
siesta: Exc     =     -4361.140330
siesta: eta*DQ  =         0.000000
siesta: Emadel  =         0.000000
siesta: Emeta   =         0.000000
siesta: Emolmec =         0.000000
siesta: Ekinion =         0.000000
siesta: Eharris =     -9180.567610
siesta: Etot    =     -9180.575228
siesta: FreeEng =     -9180.652493

siesta: Final energy (eV):
siesta:  Band Struct. =   -4101.609629
siesta:       Kinetic =    8026.194552
siesta:       Hartree =   25570.535204
siesta:    Ext. field =       0.000000
siesta:   Exch.-corr. =   -4361.140330
siesta:  Ion-electron =  -58881.512585
siesta:       Ion-ion =   20465.347931
siesta:       Ekinion =       0.000000
siesta:         Total =   -9180.575228

siesta: Atomic forces (eV/Ang):
siesta:      1    2.677657  105.583084    0.000000
siesta:      2   -1.419859  107.004524    0.000000
siesta:      3   17.241706    1.978596    0.000000
siesta:      4   18.147308 -390.471300    0.000000
siesta:      5    2.745586    0.277754    0.000000
siesta:      6  -20.775631    1.286716    0.000000
siesta:      7  -24.264727  405.349518    0.000000
siesta:      8  -15.020292   -1.852884    0.000000
siesta:      9    3.389464   -1.856463    0.000000
siesta:     10   -2.272653   -3.769309    0.000000
siesta:     11    4.404346    3.059257    0.000000
siesta:     12   -2.855348   -3.398041    0.000000
siesta:     13   -3.594215    1.951703    0.000000
siesta:     14   -3.220489   -1.009882    0.000000
siesta:     15   -0.980823 -410.423978    0.000000
siesta:     16    6.007130   -3.400545    0.000000
siesta:     17    0.243810    2.154084    0.000000
siesta:     18  -14.615165   -0.017997    0.000000
siesta:     19  -15.930222 -400.763459    0.000000
siesta:     20   -7.250692    5.321618    0.000000
siesta:     21   -2.921224  108.859945    0.000000
siesta:     22   -0.490553 -385.051649    0.000000
siesta:     23    2.715216  407.763044    0.000000
siesta:     24   -5.268930 -123.154401    0.000000
siesta:     25  -13.234637 -404.518217    0.000000
siesta:     26   15.677476 -545.088510    0.000000
siesta:     27    4.029731   -2.484964    0.000000
siesta:     28    2.796262    1.714853    0.000000
siesta:     29   -1.450351    0.643521    0.000000
siesta:     30  -21.509680 -547.970191    0.000000
siesta:     31   16.993815  548.638831    0.000000
siesta:     32    3.853253 -129.250669    0.000000
siesta:     33   33.388551  398.194173    0.000000
siesta:     34   22.807183    0.820773    0.000000
siesta:     35   -3.186489   -2.847051    0.000000
siesta:     36    1.933111   -0.065153    0.000000
siesta:     37   -0.875393   -0.253462    0.000000
siesta:     38    1.831179   -1.931787    0.000000
siesta:     39    0.246108    6.535352    0.000000
siesta:     40   -0.400920   -6.837630    0.000000
siesta:     41  -18.815859  405.763221    0.000000
siesta:     42    0.526205 -122.149890    0.000000
siesta:     43   -2.531440  402.014961    0.000000
siesta:     44   -4.965778 -122.897404    0.000000
siesta:     45   31.577578  560.071501    0.000000
siesta:     46   21.657181   -7.387161    0.000000
siesta:     47   -0.976198    1.718844    0.000000
siesta:     48   -0.147291   -0.364877    0.000000
siesta:     49   -0.139212    0.794121    0.000000
siesta:     50   -0.123888   -0.491412    0.000000
siesta:     51  -33.192036  557.521661    0.000000
siesta:     52  -21.911754   -1.475901    0.000000
siesta:     53   -6.596296  559.411382    0.000000
siesta:     54    0.627155    1.747210    0.000000
siesta:     55    0.195128   -4.040947    0.000000
siesta:     56    1.526583   -1.603278    0.000000
siesta:     57   -5.964980   -2.512769    0.000000
siesta:     58    3.381341    0.066806    0.000000
siesta:     59    0.358374   -1.680785    0.000000
siesta:     60    1.924334   -0.193772    0.000000
siesta:     61   -5.373733   -2.883751    0.000000
siesta:     62   -1.609267    6.416427    0.000000
siesta:     63    0.041968   -6.721172    0.000000
siesta:     64   -7.174823    5.008209    0.000000
siesta:     65   -1.699346   -4.849038    0.000000
siesta:     66    2.953275    1.437482    0.000000
siesta:     67   -0.922189   -1.608650    0.000000
siesta:     68   21.170837    2.819746    0.000000
siesta:     69   23.640227 -548.228093    0.000000
siesta:     70    0.997074    2.025097    0.000000
siesta:     71   -5.824501  128.816251    0.000000
siesta:     72    7.834680 -547.377944    0.000000
siesta: ----------------------------------------
siesta:    Tot    0.033940   -0.114122    0.000000

siesta: Stress tensor (static) (eV/Ang**3):
siesta:    -0.449900    0.002509    0.000000
siesta:     0.002509   -1.590049    0.000000
siesta:     0.000000    0.000000   -0.000405

siesta: Cell volume =       1893.226884 Ang**3

siesta: Pressure (static):
siesta:                Solid            Molecule  Units
siesta:           0.00740735          0.10594164  Ry/Bohr**3
siesta:           0.68011806          9.72720089  eV/Ang**3
siesta:        1089.68104055      15584.86243022  kBar
(Free)E+ p_basis*V_orbitals  =       -9142.963901
(Free)Eharris+ p_basis*V_orbitals  =       -9142.954127

siesta: Electric dipole (a.u.)  =    0.000000    0.000000    0.000000
siesta: Electric dipole (Debye) =    0.000000    0.000000    0.000000

* Maximum dynamic memory allocated : Node    0 =   250 MB
* Maximum dynamic memory allocated : Node    1 =    87 MB
* Maximum dynamic memory allocated : Node    2 =    89 MB
* Maximum dynamic memory allocated : Node    3 =   237 MB
* Maximum dynamic memory allocated : Node    4 =   224 MB
* Maximum dynamic memory allocated : Node    5 =    82 MB
* Maximum dynamic memory allocated : Node    6 =    84 MB
* Maximum dynamic memory allocated : Node    7 =   207 MB

* Maximum memory occured during matrixMtoO                    

timer: CPU execution times:
timer:  Routine       Calls   Time/call    Tot.time        %
timer:  siesta            1  213919.380  213919.380   100.00
timer:  Setup             1       3.029       3.029     0.00
timer:  bands             3     271.738     815.214     0.38
timer:  writewave         1       0.018       0.018     0.00
timer:  KSV_init          1       0.005       0.005     0.00
timer:  IterMD            1  213095.274  213095.274    99.61
timer:  hsparse           1       0.398       0.398     0.00
timer:  overlap           1       7.804       7.804     0.00
timer:  IterSCF          47    4528.754  212851.458    99.50
timer:  kinefsm           2       4.043       8.085     0.00
timer:  nlefsm            2      21.539      43.079     0.02
timer:  DHSCF            48     131.468    6310.442     2.95
timer:  DHSCF1            1       1.003       1.003     0.00
timer:  DHSCF2            1      47.013      47.013     0.02
timer:  REORD           386       0.011       4.079     0.00
timer:  POISON           49       2.467     120.877     0.06
timer:  DHSCF3           48     129.488    6215.435     2.91
timer:  rhoofd           48      26.537    1273.785     0.60
timer:  cellXC           48       3.532     169.557     0.08
timer:  vmat             48      62.938    3021.027     1.41
timer:  MolMec            2       0.000       0.000     0.00
timer:  diagon           47    4396.101  206616.763    96.59
timer:  c-eigval      10978       6.760   74208.722    34.69
timer:  c-buildHS     10978       0.143    1570.545     0.73
timer:  cdiag         21835       6.941  151557.099    70.85
timer:  cdiag1        21835       0.436    9520.320     4.45
timer:  cdiag2        21835       1.922   41970.848    19.62
timer:  cdiag3        21835       3.967   86630.360    40.50
timer:  cdiag4        21835       0.230    5015.458     2.34
timer:  c-eigvec      10857       7.348   79776.263    37.29
timer:  c-buildD      10857       4.917   53387.197    24.96
timer:  DHSCF4            1      44.145      44.145     0.02
timer:  dfscf             1      41.432      41.432     0.02
timer:  overfsm           1       0.484       0.484     0.00
timer:  optical           1       5.119       5.119     0.00
  

elaps: ELAPSED times:
elaps:  Routine       Calls   Time/call    Tot.time        %
elaps:  siesta            1   26772.456   26772.456   100.00
elaps:  Setup             1       0.378       0.378     0.00
elaps:  bands             3      34.019     102.058     0.38
elaps:  writewave         1       0.002       0.002     0.00
elaps:  KSV_init          1       0.000       0.000     0.00
elaps:  IterMD            1   26669.344   26669.344    99.61
elaps:  hsparse           1       0.051       0.051     0.00
elaps:  overlap           1       0.980       0.980     0.00
elaps:  IterSCF          47     566.784   26638.842    99.50
elaps:  kinefsm           2       0.508       1.016     0.00
elaps:  nlefsm            2       2.729       5.457     0.02
elaps:  DHSCF            48      16.571     795.394     2.97
elaps:  DHSCF1            1       0.127       0.127     0.00
elaps:  DHSCF2            1       5.880       5.880     0.02
elaps:  REORD           386       0.001       0.550     0.00
elaps:  POISON           49       0.309      15.121     0.06
elaps:  DHSCF3           48      16.199     777.570     2.90
elaps:  rhoofd           48       7.521     360.992     1.35
elaps:  cellXC           48       0.441      21.166     0.08
elaps:  vmat             48       7.873     377.912     1.41
elaps:  MolMec            2       0.000       0.000     0.00
elaps:  diagon           47     550.210   25859.865    96.59
elaps:  c-eigval      10978       0.846    9285.428    34.68
elaps:  c-buildHS     10978       0.019     211.689     0.79
elaps:  cdiag         21835       0.857   18708.554    69.88
elaps:  cdiag1        21835       0.054    1169.720     4.37
elaps:  cdiag2        21835       0.241    5252.121    19.62
elaps:  cdiag3        21835       0.497   10854.543    40.54
elaps:  cdiag4        21835       0.029     641.670     2.40
elaps:  c-eigvec      10857       0.899    9761.715    36.46
elaps:  c-buildD      10857       0.636    6905.608    25.79
elaps:  DHSCF4            1      11.429      11.429     0.04
elaps:  dfscf             1      10.886      10.886     0.04
elaps:  overfsm           1       0.061       0.061     0.00
elaps:  optical           1       0.000       0.000     0.00
  
>> End of run:  25-APR-2016  20:05:17
