Siesta Version:                                        siesta-3.2-pl-3
Architecture  : x86_64-unknown-linux-gnu--unknown
Compiler flags: mpiifort -g -O2 -fPIC -xSSE4.1 -fp-model source -shared-intel 
PARALLEL version

* Running on    8 nodes in parallel
>> Start of run:   2-MAY-2016   2:49:58

                           ***********************       
                           *  WELCOME TO SIESTA  *       
                           ***********************       

reinit: Reading from standard input
************************** Dump of input data file ****************************
#(1) General system descriptors
SystemName            GRP_doping    # Descriptive name of the system
SystemLabel           GRP_doping    # Short name for naming files
%include STRUCT.fdf
%include KPT.fdf
%include BASIS.fdf
#%include TS.fdf # for transiesta calculation
#(4) DFT, Grid, SCF
XC.functional         GGA           # LDA or GGA (default = LDA)
XC.authors            PBE           # CA (Ceperley-Aldr) = PZ
                                    #    (Perdew-Zunger) - LDA - Default
                                    # PW92 (Perdew-Wang-92) - LDA
                                    # PBE (Perdew-Burke-Ernzerhof) - GGA
MeshCutoff            200.000000    Ry      # Default: 50.0 Ry ~ 0.444 Bohr
                                    #         100.0 Ry ~ 0.314 Bohr
MaxSCFIterations      500           # Default: 50
DM.MixingWeight       0.05          # Default: 0.25
DM.NumberPulay        10            # Default: 0
DM.PulayOnFile        F             # SystemLabel.P1, SystemLabel.P2
DM.Tolerance          1.d-4         # Default: 1.d-4
DM.UseSaveDM          .true.        # because of the bug
SCFMustConverge       .true.
NeglNonOverlapInt     F             # Default: F
#(5) Eigenvalue problem: order-N or diagonalization
SolutionMethod        Diagon        # or Transiesta
ElectronicTemperature 300.0 K       # Default: 300.0 K
#(6) Molecular dynamics and relaxations
#MD.TypeOfRun          CG            # Type of dynamics:
#MD.VariableCell       F
#MD.NumCGsteps         0           # 0 for single-point / 100 for gopt
#MD.MaxCGDispl         0.2 Bohr      # Default: 0.2 Bohr
#MD.MaxForceTol        0.02 eV/Ang   # Default: 0.04 eV/Ang
#MD.MaxStressTol       1.0 GPa       # Default: 1.0 GPa
# Geometry Constraints
#%block GeometryConstraints
#	position from 1 to 44
#%endblock GeometryConstraints
BandLinesScale   pi/a
%block BandLines
 1   0.00000000  0.00000000  0.00000000
50   0.00000000  0.07809418  0.00000000
50   0.04509075  0.07809242  0.00000000
20   0.00000000  0.00000000  0.00000000
%endblock BandLines
************************** End of input data file *****************************

reinit: -----------------------------------------------------------------------
reinit: System Name: GRP_doping
reinit: -----------------------------------------------------------------------
reinit: System Label: GRP_doping                                                  
reinit: -----------------------------------------------------------------------

initatom: Reading input for the pseudopotentials and atomic orbitals ----------
 Species number:            1  Label: B Atomic number:           5
 Species number:            2  Label: C Atomic number:           6
Ground state valence configuration:   2s02  2p01
Reading pseudopotential information in formatted form from B.psf

Valence configuration for pseudopotential generation:
2s( 2.00) rc: 1.74
2p( 1.00) rc: 1.74
3d( 0.00) rc: 1.74
4f( 0.00) rc: 1.74
Ground state valence configuration:   2s02  2p02
Reading pseudopotential information in formatted form from C.psf

Valence configuration for pseudopotential generation:
2s( 2.00) rc: 1.54
2p( 2.00) rc: 1.54
3d( 0.00) rc: 1.54
4f( 0.00) rc: 1.54
For B, standard SIESTA heuristics set lmxkb to 3
 (one more than the basis l, including polarization orbitals).
Use PS.lmax or PS.KBprojectors blocks to override.
For C, standard SIESTA heuristics set lmxkb to 3
 (one more than the basis l, including polarization orbitals).
Use PS.lmax or PS.KBprojectors blocks to override.

<basis_specs>
===============================================================================
B                    Z=   5    Mass=  10.810        Charge= 0.17977+309
Lmxo=1 Lmxkb= 3    BasisType=split      Semic=F
L=0  Nsemic=0  Cnfigmx=2
          n=1  nzeta=2  polorb=0
            splnorm:   0.15000    
               vcte:    0.0000    
               rinn:    0.0000    
                rcs:    0.0000      0.0000    
            lambdas:    1.0000      1.0000    
L=1  Nsemic=0  Cnfigmx=2
          n=1  nzeta=2  polorb=1
            splnorm:   0.15000    
               vcte:    0.0000    
               rinn:    0.0000    
                rcs:    0.0000      0.0000    
            lambdas:    1.0000      1.0000    
-------------------------------------------------------------------------------
L=0  Nkbl=1  erefs: 0.17977+309
L=1  Nkbl=1  erefs: 0.17977+309
L=2  Nkbl=1  erefs: 0.17977+309
L=3  Nkbl=1  erefs: 0.17977+309
===============================================================================
</basis_specs>

atom: Called for B                     (Z =   5)

read_vps: Pseudopotential generation method:
read_vps: ATM3      Troullier-Martins                       
Total valence charge:    3.00000

read_vps: Pseudopotential includes a core correction:
read_vps: Pseudo-core for xc-correction

xc_check: Exchange-correlation functional:
xc_check: GGA Perdew, Burke & Ernzerhof 1996
V l=0 = -2*Zval/r beyond r=  1.7165
V l=1 = -2*Zval/r beyond r=  1.7165
V l=2 = -2*Zval/r beyond r=  1.7165
V l=3 = -2*Zval/r beyond r=  1.6951
All V_l potentials equal beyond r=  1.7165
This should be close to max(r_c) in ps generation
All pots = -2*Zval/r beyond r=  1.7165

VLOCAL1: 99.0% of the norm of Vloc inside     14.733 Ry
VLOCAL1: 99.9% of the norm of Vloc inside     33.577 Ry
atom: Maximum radius for 4*pi*r*r*local-pseudopot. charge    2.04484
atom: Maximum radius for r*vlocal+2*Zval:    1.75994
GHOST: No ghost state for L =  0
GHOST: No ghost state for L =  1
GHOST: No ghost state for L =  2
GHOST: No ghost state for L =  3

KBgen: Kleinman-Bylander projectors: 
   l= 0   rc=  1.897051   el= -0.693730   Ekb=  4.595746   kbcos=  0.286105
   l= 1   rc=  1.920920   el= -0.265236   Ekb= -2.350715   kbcos= -0.315747
   l= 2   rc=  2.044840   el=  0.002055   Ekb= -0.690767   kbcos= -0.013822
   l= 3   rc=  2.149707   el=  0.003188   Ekb= -0.315358   kbcos= -0.002055

KBgen: Total number of  Kleinman-Bylander projectors:   16
atom: -------------------------------------------------------------------------

atom: SANKEY-TYPE ORBITALS:
atom: Selected multiple-zeta basis: split     

SPLIT: Orbitals with angular momentum L= 0

SPLIT: Basis orbitals for state 2s

SPLIT: PAO cut-off radius determined from an
SPLIT: energy shift=  0.007350 Ry

   izeta = 1
                 lambda =    1.000000
                     rc =    5.422032
                 energy =   -0.686029
                kinetic =    0.576707
    potential(screened) =   -1.262736
       potential(ionic) =   -3.271094

   izeta = 2
                 rmatch =    4.222573
              splitnorm =    0.150000
                 energy =   -0.602132
                kinetic =    0.858975
    potential(screened) =   -1.461107
       potential(ionic) =   -3.582536

SPLIT: Orbitals with angular momentum L= 1

SPLIT: Basis orbitals for state 2p

SPLIT: PAO cut-off radius determined from an
SPLIT: energy shift=  0.007350 Ry

   izeta = 1
                 lambda =    1.000000
                     rc =    6.790259
                 energy =   -0.258578
                kinetic =    1.481412
    potential(screened) =   -1.739989
       potential(ionic) =   -3.657461

   izeta = 2
                 rmatch =    4.608740
              splitnorm =    0.150000
                 energy =   -0.173757
                kinetic =    2.186690
    potential(screened) =   -2.360447
       potential(ionic) =   -4.464260

POLgen: Perturbative polarization orbital with L=  2

POLgen: Polarization orbital for state 2p

   izeta = 1
                     rc =    6.790259
                 energy =    0.684082
                kinetic =    1.471481
    potential(screened) =   -0.787399
       potential(ionic) =   -2.406985
atom: Total number of Sankey-type orbitals: 13

atm_pop: Valence configuration (for local Pseudopot. screening):
 2s( 2.00)                                                            
 2p( 1.00)                                                            
Vna: chval, zval:    3.00000   3.00000

Vna:  Cut-off radius for the neutral-atom potential:   6.790259
comcore: Pseudo-core radius Rcore=  2.122997

atom: _________________________________________________________________________

<basis_specs>
===============================================================================
C                    Z=   6    Mass=  12.010        Charge= 0.17977+309
Lmxo=1 Lmxkb= 3    BasisType=split      Semic=F
L=0  Nsemic=0  Cnfigmx=2
          n=1  nzeta=2  polorb=0
            splnorm:   0.15000    
               vcte:    0.0000    
               rinn:    0.0000    
                rcs:    0.0000      0.0000    
            lambdas:    1.0000      1.0000    
L=1  Nsemic=0  Cnfigmx=2
          n=1  nzeta=2  polorb=1
            splnorm:   0.15000    
               vcte:    0.0000    
               rinn:    0.0000    
                rcs:    0.0000      0.0000    
            lambdas:    1.0000      1.0000    
-------------------------------------------------------------------------------
L=0  Nkbl=1  erefs: 0.17977+309
L=1  Nkbl=1  erefs: 0.17977+309
L=2  Nkbl=1  erefs: 0.17977+309
L=3  Nkbl=1  erefs: 0.17977+309
===============================================================================
</basis_specs>

atom: Called for C                     (Z =   6)

read_vps: Pseudopotential generation method:
read_vps: ATM3      Troullier-Martins                       
Total valence charge:    4.00000

read_vps: Pseudopotential includes a core correction:
read_vps: Pseudo-core for xc-correction

xc_check: Exchange-correlation functional:
xc_check: GGA Perdew, Burke & Ernzerhof 1996
V l=0 = -2*Zval/r beyond r=  1.5227
V l=1 = -2*Zval/r beyond r=  1.5227
V l=2 = -2*Zval/r beyond r=  1.5227
V l=3 = -2*Zval/r beyond r=  1.5038
All V_l potentials equal beyond r=  1.5227
This should be close to max(r_c) in ps generation
All pots = -2*Zval/r beyond r=  1.5227

VLOCAL1: 99.0% of the norm of Vloc inside     18.722 Ry
VLOCAL1: 99.9% of the norm of Vloc inside     42.668 Ry
atom: Maximum radius for 4*pi*r*r*local-pseudopot. charge    1.83678
atom: Maximum radius for r*vlocal+2*Zval:    1.58088
GHOST: No ghost state for L =  0
GHOST: No ghost state for L =  1
GHOST: No ghost state for L =  2
GHOST: No ghost state for L =  3

KBgen: Kleinman-Bylander projectors: 
   l= 0   rc=  1.704034   el= -1.009801   Ekb=  5.335044   kbcos=  0.316824
   l= 1   rc=  1.704034   el= -0.388707   Ekb= -3.785862   kbcos= -0.366464
   l= 2   rc=  1.791422   el=  0.001971   Ekb= -0.970471   kbcos= -0.009212
   l= 3   rc=  1.859892   el=  0.003065   Ekb= -0.399525   kbcos= -0.001223

KBgen: Total number of  Kleinman-Bylander projectors:   16
atom: -------------------------------------------------------------------------

atom: SANKEY-TYPE ORBITALS:
atom: Selected multiple-zeta basis: split     

SPLIT: Orbitals with angular momentum L= 0

SPLIT: Basis orbitals for state 2s

SPLIT: PAO cut-off radius determined from an
SPLIT: energy shift=  0.007350 Ry

   izeta = 1
                 lambda =    1.000000
                     rc =    4.632753
                 energy =   -1.002270
                kinetic =    0.855760
    potential(screened) =   -1.858031
       potential(ionic) =   -5.417575

   izeta = 2
                 rmatch =    3.431921
              splitnorm =    0.150000
                 energy =   -0.867111
                kinetic =    1.300804
    potential(screened) =   -2.167915
       potential(ionic) =   -5.962684

SPLIT: Orbitals with angular momentum L= 1

SPLIT: Basis orbitals for state 2p

SPLIT: PAO cut-off radius determined from an
SPLIT: energy shift=  0.007350 Ry

   izeta = 1
                 lambda =    1.000000
                     rc =    5.658549
                 energy =   -0.381140
                kinetic =    2.399701
    potential(screened) =   -2.780841
       potential(ionic) =   -6.206085

   izeta = 2
                 rmatch =    3.653288
              splitnorm =    0.150000
                 energy =   -0.249149
                kinetic =    3.542762
    potential(screened) =   -3.791911
       potential(ionic) =   -7.581078

POLgen: Perturbative polarization orbital with L=  2

POLgen: Polarization orbital for state 2p

   izeta = 1
                     rc =    5.658549
                 energy =    1.109913
                kinetic =    2.304789
    potential(screened) =   -1.194876
       potential(ionic) =   -4.013592
atom: Total number of Sankey-type orbitals: 13

atm_pop: Valence configuration (for local Pseudopot. screening):
 2s( 2.00)                                                            
 2p( 2.00)                                                            
Vna: chval, zval:    4.00000   4.00000

Vna:  Cut-off radius for the neutral-atom potential:   5.658549
comcore: Pseudo-core radius Rcore=  1.791422

atom: _________________________________________________________________________

prinput: Basis input ----------------------------------------------------------

PAO.BasisType split     

%block ChemicalSpeciesLabel
    1    5 B                       # Species index, atomic number, species label
    2    6 C                       # Species index, atomic number, species label
%endblock ChemicalSpeciesLabel

%block PAO.Basis                 # Define Basis set
B                     2                    # Species label, number of l-shells
 n=2   0   2                         # n, l, Nzeta 
   5.422      4.223   
   1.000      1.000   
 n=2   1   2 P   1                   # n, l, Nzeta, Polarization, NzetaPol
   6.790      4.609   
   1.000      1.000   
C                     2                    # Species label, number of l-shells
 n=2   0   2                         # n, l, Nzeta 
   4.633      3.432   
   1.000      1.000   
 n=2   1   2 P   1                   # n, l, Nzeta, Polarization, NzetaPol
   5.659      3.653   
   1.000      1.000   
%endblock PAO.Basis

prinput: ----------------------------------------------------------------------

coor:   Atomic-coordinates input format  =     Fractional

siesta: Atomic coordinates (Bohr) and species
siesta:     -2.35420  41.57980   0.00000  1        1
siesta:      2.30256  41.57980   0.00000  1        2
siesta:      6.95932  30.82560   0.00000  1        3
siesta:     -2.35420  17.38257   0.00000  1        4
siesta:     -0.02582  18.72698   0.00000  1        5
siesta:     -0.02582  21.41544   0.00000  1        6
siesta:     -4.68258  18.72698   0.00000  1        7
siesta:     -4.68258  21.41544   0.00000  1        8
siesta:     -2.35420  22.75985   0.00000  1        9
siesta:      4.63094  29.48119   0.00000  1       10
siesta:     -4.68258  29.48119   0.00000  1       11
siesta:      2.30256  30.82560   0.00000  1       12
siesta:      2.30256  33.51406   0.00000  1       13
siesta:     -7.01096  30.82560   0.00000  1       14
siesta:     -0.02582  42.92421   0.00000  1       15
siesta:     -0.02582  45.61267   0.00000  1       16
siesta:     -0.02582   2.59549   0.00000  2       17
siesta:     -0.02582   5.28395   0.00000  2       18
siesta:     -2.35420  38.89134   0.00000  2       19
siesta:      2.30256  38.89134   0.00000  2       20
siesta:      4.63094  34.85847   0.00000  2       21
siesta:      4.63094  37.54693   0.00000  2       22
siesta:      6.95932  33.51406   0.00000  2       23
siesta:      9.28770  26.79272   0.00000  2       24
siesta:      9.28770  29.48119   0.00000  2       25
siesta:     -4.68258  34.85847   0.00000  2       26
siesta:     -4.68258  37.54693   0.00000  2       27
siesta:      2.30256   6.62836   0.00000  2       28
siesta:      2.30256   9.31683   0.00000  2       29
siesta:      4.63094  10.66124   0.00000  2       30
siesta:      4.63094  13.34970   0.00000  2       31
siesta:      6.95932  14.69411   0.00000  2       32
siesta:      6.95932  17.38257   0.00000  2       33
siesta:      9.28770  18.72698   0.00000  2       34
siesta:      9.28770  21.41544   0.00000  2       35
siesta:     11.61608  22.75985   0.00000  2       36
siesta:     11.61608  25.44831   0.00000  2       37
siesta:     -2.35420   6.62836   0.00000  2       38
siesta:     -2.35420   9.31683   0.00000  2       39
siesta:     -0.02582  10.66124   0.00000  2       40
siesta:     -0.02582  13.34970   0.00000  2       41
siesta:      2.30256  14.69411   0.00000  2       42
siesta:      2.30256  17.38257   0.00000  2       43
siesta:      4.63094  18.72698   0.00000  2       44
siesta:      4.63094  21.41544   0.00000  2       45
siesta:      6.95932  22.75985   0.00000  2       46
siesta:      6.95932  25.44831   0.00000  2       47
siesta:     -4.68258  10.66124   0.00000  2       48
siesta:     -4.68258  13.34970   0.00000  2       49
siesta:     -2.35420  14.69411   0.00000  2       50
siesta:      2.30256  22.75985   0.00000  2       51
siesta:      2.30256  25.44831   0.00000  2       52
siesta:     -7.01096  14.69411   0.00000  2       53
siesta:     -7.01096  17.38257   0.00000  2       54
siesta:     -2.35420  25.44831   0.00000  2       55
siesta:     -9.33934  18.72698   0.00000  2       56
siesta:     -9.33934  21.41544   0.00000  2       57
siesta:     -7.01096  22.75985   0.00000  2       58
siesta:     -7.01096  25.44831   0.00000  2       59
siesta:    -11.66772  22.75985   0.00000  2       60
siesta:    -11.66772  25.44831   0.00000  2       61
siesta:     -9.33934  26.79272   0.00000  2       62
siesta:     -9.33934  29.48119   0.00000  2       63
siesta:      4.63094  26.79272   0.00000  2       64
siesta:     -0.02582  26.79272   0.00000  2       65
siesta:     -0.02582  29.48119   0.00000  2       66
siesta:     -4.68258  26.79272   0.00000  2       67
siesta:     -2.35420  30.82560   0.00000  2       68
siesta:     -2.35420  33.51406   0.00000  2       69
siesta:     -7.01096  33.51406   0.00000  2       70
siesta:     -0.02582  34.85847   0.00000  2       71
siesta:     -0.02582  37.54693   0.00000  2       72

siesta: System type = slab      

initatomlists: Number of atoms, orbitals, and projectors:     72   936  1152

siesta: ******************** Simulation parameters ****************************
siesta:
siesta: The following are some of the parameters of the simulation.
siesta: A complete list of the parameters used, including default values,
siesta: can be found in file out.fdf
siesta:
redata: Non-Collinear-spin run           =     F
redata: SpinPolarized (Up/Down) run      =     F
redata: Number of spin components        =     1
redata: Long output                      =     F
redata: Number of Atomic Species         =        2
redata: Charge density info will appear in .RHO file
redata: Write Mulliken Pop.              =     NO
redata: Mesh Cutoff                      =   200.0000  Ry
redata: Net charge of the system         =     0.0000 |e|
redata: Max. number of SCF Iter          =      500
redata: SCF convergence failure will abort job
redata: Performing Pulay mixing using    =    10 iterations
redata: Mix DM in first SCF step ?       =     F
redata: Write Pulay info on disk?        =     F
redata: Discard 1st Pulay DM after  kick =     F
redata: New DM Mixing Weight             =     0.0500
redata: New DM Occupancy tolerance       = 0.000000000001
redata: No kicks to SCF
redata: DM Mixing Weight for Kicks       =     0.5000
redata: DM Tolerance for SCF             =     0.000100
redata: Require Energy convergence for SCF =     F
redata: DM Energy tolerance for SCF      =     0.000100 eV
redata: Require Harris convergence for SCF =     F
redata: DM Harris energy tolerance for SCF =     0.000100 eV
redata: Using Saved Data (generic)   =     F
redata: Use continuation files for DM    =     T
redata: Neglect nonoverlap interactions  =     F
redata: Method of Calculation            =     Diagonalization
redata: Divide and Conquer               =     T
redata: Electronic Temperature           =     0.0019  Ry
redata: Fix the spin of the system       =     F
redata: Dynamics option                  =     Verlet MD run
redata: Initial MD time step             =        1
redata:   Final MD time step             =        1
redata: Length of MD time step           =     1.0000  fs
redata: Initial Temperature of MD run    =     0.0000  K
redata: Perform a MD quench              =     F
redata: ***********************************************************************
Total number of electrons:   272.000000
Total ionic charge:   272.000000

* ProcessorY, Blocksize:    2  24

k-point displ. along   1 input, could be:     0.50    0.00
k-point displ. along   2 input, could be:     0.50    0.00
 Kpoints in:          231 . Kpoints trimmed:          231

siesta: k-grid: Number of k-points =   231
siesta: k-grid: Cutoff (effective) =     5.000 Ang
siesta: k-grid: Supercell and displacements
siesta: k-grid:   21   0   0      0.500
siesta: k-grid:    0  21   0      0.500
siesta: k-grid:    0   0   1      0.000
Naive supercell factors:     2    2    2

superc: Internal auxiliary supercell:     2 x     2 x     2  =       8
superc: Number of atoms, orbitals, and projectors:    576   7488   9216

* Maximum dynamic memory allocated =     4 MB

siesta:                 ==============================
                            Begin MD step =      1
                        ==============================

superc: Internal auxiliary supercell:     2 x     2 x     2  =       8
superc: Number of atoms, orbitals, and projectors:    576   7488   9216

outcell: Unit cell vectors (Ang):
       12.804619    7.392750    0.000000
        0.000000   14.785500    0.000000
        0.000000    0.000000   10.000000

outcell: Cell vector modules (Ang)   :   14.785500   14.785500   10.000000
outcell: Cell angles (23,13,12) (deg):     90.0000     90.0000     60.0000
outcell: Cell volume (Ang**3)        :   1893.2269
New_DM. Step:     1
Initializing Density Matrix...

InitMesh: MESH =   120 x   120 x    90 =     1296000
InitMesh: Mesh cutoff (required, used) =   200.000   223.865 Ry

* Maximum dynamic memory allocated =   217 MB

stepf: Fermi-Dirac step function

siesta: Program's energy decomposition (eV):
siesta: Ebs     =     -5571.022462
siesta: Eions   =     16354.103692
siesta: Ena     =      4319.389073
siesta: Ekin    =      5534.369168
siesta: Enl     =       766.269601
siesta: DEna    =        -0.000009
siesta: DUscf   =         0.000000
siesta: DUext   =         0.000000
siesta: Exc     =     -4187.706791
siesta: eta*DQ  =         0.000000
siesta: Emadel  =         0.000000
siesta: Emeta   =         0.000000
siesta: Emolmec =         0.000000
siesta: Ekinion =         0.000000
siesta: Eharris =     -9678.711782
siesta: Etot    =     -9921.782651
siesta: FreeEng =     -9921.782651

siesta: iscf   Eharris(eV)      E_KS(eV)   FreeEng(eV)   dDmax  Ef(eV)
siesta:    1    -9678.7118    -9921.7827    -9921.7827  8.4217 -8.3636
timer: Routine,Calls,Time,% = IterSCF        1    3476.168  99.69
elaps: Routine,Calls,Wall,% = IterSCF        1     435.340  99.69
siesta:    2   -15168.3076    -8854.2109    -8854.2783 17.2751 -5.3950
siesta:    3    -9693.8647    -9746.5459    -9746.5827  2.7626 -6.2707
siesta:    4    -9644.6931    -9666.3058    -9666.3552  1.4896 -5.5597
siesta:    5    -9558.3527    -9581.9005    -9581.9441  1.3529 -5.5213
siesta:    6    -9544.9488    -9543.4598    -9543.5056  1.2604 -5.4079
siesta:    7    -9534.5588    -9527.2762    -9527.3387  0.7446 -5.2412
siesta:    8    -9532.4890    -9524.4529    -9524.4623  0.7196 -5.2868
siesta:    9    -9529.8831    -9519.1107    -9519.1310  0.7652 -5.1688
siesta:   10    -9529.4509    -9514.7786    -9514.8197  0.7665 -5.1052
siesta:   11    -9528.7948    -9512.4299    -9512.4862  0.5874 -5.1136
siesta:   12    -9529.6961    -9507.1088    -9507.1419  0.2080 -5.0677
siesta:   13    -9529.2427    -9506.8754    -9506.9070  0.1600 -5.0521
siesta:   14    -9528.6803    -9509.4558    -9509.5215  0.1387 -5.0813
siesta:   15    -9528.3037    -9512.5284    -9512.6005  0.1496 -5.1150
siesta:   16    -9528.0297    -9517.1904    -9517.2370  0.0730 -5.1415
siesta:   17    -9527.9752    -9518.7869    -9518.8529  0.0670 -5.1521
siesta:   18    -9527.9721    -9521.5724    -9521.6426  0.0416 -5.1690
siesta:   19    -9527.9425    -9522.7781    -9522.8362  0.0423 -5.1659
siesta:   20    -9527.9232    -9524.0023    -9524.0670  0.0318 -5.1647
siesta:   21    -9527.9136    -9525.6975    -9525.7626  0.0232 -5.1647
siesta:   22    -9527.9114    -9526.7956    -9526.8612  0.0250 -5.1676
siesta:   23    -9527.9091    -9527.7385    -9527.8048  0.0155 -5.1707
siesta:   24    -9527.9083    -9527.9380    -9528.0046  0.0131 -5.1690
siesta:   25    -9527.9078    -9528.1370    -9528.2034  0.0107 -5.1675
siesta:   26    -9527.9075    -9528.1228    -9528.1892  0.0066 -5.1650
siesta:   27    -9527.9075    -9528.0490    -9528.1153  0.0036 -5.1620
siesta:   28    -9527.9073    -9528.0136    -9528.0799  0.0028 -5.1616
siesta:   29    -9527.9073    -9527.9924    -9528.0589  0.0023 -5.1618
siesta:   30    -9527.9071    -9527.9742    -9528.0405  0.0017 -5.1619
siesta:   31    -9527.9072    -9527.9016    -9527.9681  0.0016 -5.1620
siesta:   32    -9527.9072    -9527.8896    -9527.9559  0.0013 -5.1620
siesta:   33    -9527.9071    -9527.8886    -9527.9550  0.0006 -5.1621
siesta:   34    -9527.9071    -9527.8916    -9527.9579  0.0002 -5.1622
siesta:   35    -9527.9071    -9527.8944    -9527.9608  0.0002 -5.1623
siesta:   36    -9527.9071    -9527.8943    -9527.9607  0.0001 -5.1624
siesta:   37    -9527.9071    -9527.8975    -9527.9639  0.0001 -5.1624

siesta: E_KS(eV) =            -9527.8996

siesta: E_KS - E_eggbox =     -9527.8996

siesta: Atomic forces (eV/Ang):
----------------------------------------
   Tot   -0.070851    0.014881    0.000000
----------------------------------------
   Max  560.307399
   Res  141.566012    sqrt( Sum f_i^2 / 3N )
----------------------------------------
   Max  560.307399    constrained

Stress-tensor-Voigt (kbar):     -763.72    -2530.98       -0.58      -10.97        0.00        0.00
(Free)E + p*V (eV/cell)    -8230.0133
Target enthalpy (eV/cell)    -9527.9660

siesta: Stress tensor (static) (eV/Ang**3):
        -0.476671   -0.006848    0.000000
        -0.006848   -1.579699    0.000000
         0.000000    0.000000   -0.000361

siesta: Pressure (static):       1098.42722627  kBar

siesta: Stress tensor (total) (eV/Ang**3):
        -0.476671   -0.006848    0.000000
        -0.006848   -1.579699    0.000000
         0.000000    0.000000   -0.000361

siesta: Pressure (total):       1098.42722627  kBar

siesta: Temp_ion =       0.000 K

* Maximum dynamic memory allocated =   233 MB
Computing bands...

siesta: Program's energy decomposition (eV):
siesta: Ebs     =     -4245.970190
siesta: Eions   =     16354.103692
siesta: Ena     =      4319.389073
siesta: Ekin    =      8353.403020
siesta: Enl     =      -845.000175
siesta: DEna    =      -749.028896
siesta: DUscf   =        98.449955
siesta: DUext   =         0.000000
siesta: Exc     =     -4351.008858
siesta: eta*DQ  =         0.000000
siesta: Emadel  =         0.000000
siesta: Emeta   =         0.000000
siesta: Emolmec =         0.000000
siesta: Ekinion =         0.000000
siesta: Eharris =     -9527.907122
siesta: Etot    =     -9527.899573
siesta: FreeEng =     -9527.965964

siesta: Final energy (eV):
siesta:  Band Struct. =   -4245.970190
siesta:       Kinetic =    8353.403020
siesta:       Hartree =   26996.103144
siesta:    Ext. field =       0.000000
siesta:   Exch.-corr. =   -4351.008858
siesta:  Ion-electron =  -62064.434526
siesta:       Ion-ion =   21538.037647
siesta:       Ekinion =       0.000000
siesta:         Total =   -9527.899573

siesta: Atomic forces (eV/Ang):
siesta:      1   -3.514051 -403.085984    0.000000
siesta:      2   -2.549769 -398.679509    0.000000
siesta:      3    8.832279    4.084797    0.000000
siesta:      4  -17.035669   -3.218668    0.000000
siesta:      5    0.230350  297.043052    0.000000
siesta:      6    3.989907    2.667103    0.000000
siesta:      7   -1.519693   -2.411390    0.000000
siesta:      8   -4.443660    1.662417    0.000000
siesta:      9    0.761078    3.410235    0.000000
siesta:     10   -1.864615   -3.329834    0.000000
siesta:     11    4.820269   -2.454290    0.000000
siesta:     12   14.938046    2.442328    0.000000
siesta:     13   22.105646 -401.506387    0.000000
siesta:     14   -8.561409    3.914937    0.000000
siesta:     15    3.667727   98.722108    0.000000
siesta:     16    4.119458 -289.376811    0.000000
siesta:     17   -6.290325  549.282242    0.000000
siesta:     18    4.378063 -131.564066    0.000000
siesta:     19   -1.210916  126.578179    0.000000
siesta:     20    1.606284  125.913667    0.000000
siesta:     21   26.410154    0.421430    0.000000
siesta:     22   30.078838 -552.199787    0.000000
siesta:     23   -4.196781    4.905402    0.000000
siesta:     24    3.155376    2.563539    0.000000
siesta:     25   -0.217229   -3.144840    0.000000
siesta:     26  -27.381469    4.677187    0.000000
siesta:     27  -31.897381 -551.302013    0.000000
siesta:     28   16.854342  408.523834    0.000000
siesta:     29    0.980857 -122.751642    0.000000
siesta:     30   32.301639  552.289642    0.000000
siesta:     31   27.635694   -1.653858    0.000000
siesta:     32   -2.264648   -1.740987    0.000000
siesta:     33    2.913084   -0.551272    0.000000
siesta:     34   -1.147018   -0.297525    0.000000
siesta:     35    2.083065   -2.209755    0.000000
siesta:     36   -0.253243    7.402569    0.000000
siesta:     37   -0.085473   -7.367459    0.000000
siesta:     38  -17.418575  548.162965    0.000000
siesta:     39    0.157473 -126.094383    0.000000
siesta:     40   -3.406029  548.764982    0.000000
siesta:     41   -7.343306 -122.847665    0.000000
siesta:     42   28.986924  412.727867    0.000000
siesta:     43   22.709733   -0.498044    0.000000
siesta:     44   -1.524825    0.993105    0.000000
siesta:     45    0.236415    0.700270    0.000000
siesta:     46    0.144543    0.698558    0.000000
siesta:     47   -1.158990   -1.281495    0.000000
siesta:     48  -31.219201  551.499188    0.000000
siesta:     49  -27.754167   -1.464347    0.000000
siesta:     50  -22.813466  406.251433    0.000000
siesta:     51    2.203200    0.946063    0.000000
siesta:     52    0.659309    0.162418    0.000000
siesta:     53    3.070047   -1.326968    0.000000
siesta:     54   -7.889855   -2.490469    0.000000
siesta:     55   -0.205455    3.190390    0.000000
siesta:     56    1.764376    0.184127    0.000000
siesta:     57   -2.888562   -2.292245    0.000000
siesta:     58   -1.448617    2.659548    0.000000
siesta:     59    0.842539   -1.153002    0.000000
siesta:     60    0.245581    6.753407    0.000000
siesta:     61    0.318284   -6.647693    0.000000
siesta:     62   -3.836534    2.084885    0.000000
siesta:     63    0.060375   -2.537372    0.000000
siesta:     64    0.164805   -3.382721    0.000000
siesta:     65   -0.773902   -0.749117    0.000000
siesta:     66    5.978395 -560.307399    0.000000
siesta:     67   -0.206863   -2.861759    0.000000
siesta:     68  -19.811587    7.312254    0.000000
siesta:     69  -28.529663 -554.532567    0.000000
siesta:     70    4.026627    4.618719    0.000000
siesta:     71    7.528923  120.060437    0.000000
siesta:     72    1.632391 -544.947081    0.000000
siesta: ----------------------------------------
siesta:    Tot   -0.070851    0.014881    0.000000

siesta: Stress tensor (static) (eV/Ang**3):
siesta:    -0.476671   -0.006848    0.000000
siesta:    -0.006848   -1.579699    0.000000
siesta:     0.000000    0.000000   -0.000361

siesta: Cell volume =       1893.226884 Ang**3

siesta: Pressure (static):
siesta:                Solid            Molecule  Units
siesta:           0.00746681          0.10698210  Ry/Bohr**3
siesta:           0.68557694          9.82273248  eV/Ang**3
siesta:        1098.42722627      15737.92256417  kBar
(Free)E+ p_basis*V_orbitals  =       -9492.173092
(Free)Eharris+ p_basis*V_orbitals  =       -9492.182714

siesta: Electric dipole (a.u.)  =    0.000000    0.000000    0.000000
siesta: Electric dipole (Debye) =    0.000000    0.000000    0.000000

* Maximum dynamic memory allocated : Node    0 =   233 MB
* Maximum dynamic memory allocated : Node    1 =    81 MB
* Maximum dynamic memory allocated : Node    2 =    83 MB
* Maximum dynamic memory allocated : Node    3 =   221 MB
* Maximum dynamic memory allocated : Node    4 =   224 MB
* Maximum dynamic memory allocated : Node    5 =    82 MB
* Maximum dynamic memory allocated : Node    6 =    84 MB
* Maximum dynamic memory allocated : Node    7 =   207 MB

* Maximum memory occured during matrixMtoO                    

timer: CPU execution times:
timer:  Routine       Calls   Time/call    Tot.time        %
timer:  siesta            1  127005.818  127005.818   100.00
timer:  Setup             1       2.717       2.717     0.00
timer:  bands             3     243.382     730.147     0.57
timer:  writewave         1       0.021       0.021     0.00
timer:  KSV_init          1       0.000       0.000     0.00
timer:  IterMD            1  126267.762  126267.762    99.42
timer:  hsparse           1       0.519       0.519     0.00
timer:  overlap           1       7.204       7.204     0.01
timer:  IterSCF          37    3407.306  126070.305    99.26
timer:  kinefsm           2       3.745       7.490     0.01
timer:  nlefsm            2      19.714      39.428     0.03
timer:  DHSCF            38     101.412    3853.649     3.03
timer:  DHSCF1            1       0.992       0.992     0.00
timer:  DHSCF2            1      41.506      41.506     0.03
timer:  REORD           306       0.005       1.563     0.00
timer:  POISON           39       0.861      33.595     0.03
timer:  DHSCF3           38      99.243    3771.250     2.97
timer:  rhoofd           38      22.693     862.331     0.68
timer:  cellXC           38       3.320     126.159     0.10
timer:  vmat             38      46.550    1768.894     1.39
timer:  MolMec            2       0.000       0.001     0.00
timer:  diagon           37    3305.265  122294.803    96.29
timer:  c-eigval       8668       6.021   52189.277    41.09
timer:  c-buildHS      8668       0.052     448.046     0.35
timer:  cdiag         17215       6.165  106129.179    83.56
timer:  cdiag1        17215       0.385    6628.830     5.22
timer:  cdiag2        17215       1.769   30458.341    23.98
timer:  cdiag3        17215       3.725   64117.892    50.48
timer:  cdiag4        17215       0.158    2720.774     2.14
timer:  c-eigvec       8547       6.407   54759.337    43.12
timer:  c-buildD       8547       1.876   16032.997    12.62
timer:  DHSCF4            1      39.176      39.176     0.03
timer:  dfscf             1      36.438      36.438     0.03
timer:  overfsm           1       0.444       0.444     0.00
timer:  optical           1       4.529       4.529     0.00
  

elaps: ELAPSED times:
elaps:  Routine       Calls   Time/call    Tot.time        %
elaps:  siesta            1   15905.182   15905.182   100.00
elaps:  Setup             1       0.340       0.340     0.00
elaps:  bands             3      30.496      91.488     0.58
elaps:  writewave         1       0.002       0.002     0.00
elaps:  KSV_init          1       0.000       0.000     0.00
elaps:  IterMD            1   15812.754   15812.754    99.42
elaps:  hsparse           1       0.066       0.066     0.00
elaps:  overlap           1       0.920       0.920     0.01
elaps:  IterSCF          37     426.703   15788.026    99.26
elaps:  kinefsm           2       0.478       0.956     0.01
elaps:  nlefsm            2       2.573       5.147     0.03
elaps:  DHSCF            38      12.825     487.353     3.06
elaps:  DHSCF1            1       0.127       0.127     0.00
elaps:  DHSCF2            1       5.195       5.195     0.03
elaps:  REORD           306       0.001       0.207     0.00
elaps:  POISON           39       0.109       4.236     0.03
elaps:  DHSCF3           38      12.429     472.315     2.97
elaps:  rhoofd           38       6.052     229.993     1.45
elaps:  cellXC           38       0.416      15.790     0.10
elaps:  vmat             38       5.830     221.534     1.39
elaps:  MolMec            2       0.000       0.000     0.00
elaps:  diagon           37     413.935   15315.585    96.29
elaps:  c-eigval       8668       0.754    6535.700    41.09
elaps:  c-buildHS      8668       0.007      61.390     0.39
elaps:  cdiag         17215       0.766   13189.583    82.93
elaps:  cdiag1        17215       0.048     829.914     5.22
elaps:  cdiag2        17215       0.222    3815.181    23.99
elaps:  cdiag3        17215       0.467    8040.563    50.55
elaps:  cdiag4        17215       0.019     334.286     2.10
elaps:  c-eigvec       8547       0.792    6765.261    42.53
elaps:  c-buildD       8547       0.246    2100.066    13.20
elaps:  DHSCF4            1       9.628       9.628     0.06
elaps:  dfscf             1       9.086       9.086     0.06
elaps:  overfsm           1       0.056       0.056     0.00
elaps:  optical           1       0.000       0.000     0.00
  
>> End of run:   2-MAY-2016   7:15:03
