Siesta Version:                                        siesta-3.2-pl-3
Architecture  : x86_64-unknown-linux-gnu--unknown
Compiler flags: mpiifort -g -O2 -fPIC -xSSE4.1 -fp-model source -shared-intel 
PARALLEL version

* Running on   12 nodes in parallel
>> Start of run:   6-APR-2016  14:25:21

                           ***********************       
                           *  WELCOME TO SIESTA  *       
                           ***********************       

reinit: Reading from standard input
************************** Dump of input data file ****************************
#(1) General system descriptors
SystemName            GRP_doping    # Descriptive name of the system
SystemLabel           GRP_doping    # Short name for naming files
%include STRUCT.fdf
%include KPT.fdf
%include BASIS.fdf
#%include TS.fdf # for transiesta calculation
#(4) DFT, Grid, SCF
XC.functional         GGA           # LDA or GGA (default = LDA)
XC.authors            PBE           # CA (Ceperley-Aldr) = PZ
                                    #    (Perdew-Zunger) - LDA - Default
                                    # PW92 (Perdew-Wang-92) - LDA
                                    # PBE (Perdew-Burke-Ernzerhof) - GGA
MeshCutoff            200.000000    Ry      # Default: 50.0 Ry ~ 0.444 Bohr
                                    #         100.0 Ry ~ 0.314 Bohr
MaxSCFIterations      500           # Default: 50
DM.MixingWeight       0.05          # Default: 0.25
DM.NumberPulay        10            # Default: 0
DM.PulayOnFile        F             # SystemLabel.P1, SystemLabel.P2
DM.Tolerance          1.d-4         # Default: 1.d-4
DM.UseSaveDM          .true.        # because of the bug
SCFMustConverge       .true.
NeglNonOverlapInt     F             # Default: F
Diag.ParallelOverK    .true.
#(5) Eigenvalue problem: order-N or diagonalization
SolutionMethod        Diagon        # or Transiesta
ElectronicTemperature 300.0 K       # Default: 300.0 K
#(6) Molecular dynamics and relaxations
#MD.TypeOfRun          CG            # Type of dynamics:
#MD.VariableCell       F
#MD.NumCGsteps         0           # 0 for single-point / 100 for gopt
#MD.MaxCGDispl         0.2 Bohr      # Default: 0.2 Bohr
#MD.MaxForceTol        0.02 eV/Ang   # Default: 0.04 eV/Ang
#MD.MaxStressTol       1.0 GPa       # Default: 1.0 GPa
************************** End of input data file *****************************

reinit: -----------------------------------------------------------------------
reinit: System Name: GRP_doping
reinit: -----------------------------------------------------------------------
reinit: System Label: GRP_doping                                                  
reinit: -----------------------------------------------------------------------

initatom: Reading input for the pseudopotentials and atomic orbitals ----------
 Species number:            1  Label: B Atomic number:           5
 Species number:            2  Label: C Atomic number:           6
Ground state valence configuration:   2s02  2p01
Reading pseudopotential information in formatted form from B.psf

Valence configuration for pseudopotential generation:
2s( 2.00) rc: 1.74
2p( 1.00) rc: 1.74
3d( 0.00) rc: 1.74
4f( 0.00) rc: 1.74
Ground state valence configuration:   2s02  2p02
Reading pseudopotential information in formatted form from C.psf

Valence configuration for pseudopotential generation:
2s( 2.00) rc: 1.54
2p( 2.00) rc: 1.54
3d( 0.00) rc: 1.54
4f( 0.00) rc: 1.54
For B, standard SIESTA heuristics set lmxkb to 3
 (one more than the basis l, including polarization orbitals).
Use PS.lmax or PS.KBprojectors blocks to override.
For C, standard SIESTA heuristics set lmxkb to 3
 (one more than the basis l, including polarization orbitals).
Use PS.lmax or PS.KBprojectors blocks to override.

<basis_specs>
===============================================================================
B                    Z=   5    Mass=  10.810        Charge= 0.17977+309
Lmxo=1 Lmxkb= 3    BasisType=split      Semic=F
L=0  Nsemic=0  Cnfigmx=2
          n=1  nzeta=2  polorb=0
            splnorm:   0.15000    
               vcte:    0.0000    
               rinn:    0.0000    
                rcs:    0.0000      0.0000    
            lambdas:    1.0000      1.0000    
L=1  Nsemic=0  Cnfigmx=2
          n=1  nzeta=2  polorb=1
            splnorm:   0.15000    
               vcte:    0.0000    
               rinn:    0.0000    
                rcs:    0.0000      0.0000    
            lambdas:    1.0000      1.0000    
-------------------------------------------------------------------------------
L=0  Nkbl=1  erefs: 0.17977+309
L=1  Nkbl=1  erefs: 0.17977+309
L=2  Nkbl=1  erefs: 0.17977+309
L=3  Nkbl=1  erefs: 0.17977+309
===============================================================================
</basis_specs>

atom: Called for B                     (Z =   5)

read_vps: Pseudopotential generation method:
read_vps: ATM3      Troullier-Martins                       
Total valence charge:    3.00000

read_vps: Pseudopotential includes a core correction:
read_vps: Pseudo-core for xc-correction

xc_check: Exchange-correlation functional:
xc_check: GGA Perdew, Burke & Ernzerhof 1996
V l=0 = -2*Zval/r beyond r=  1.7165
V l=1 = -2*Zval/r beyond r=  1.7165
V l=2 = -2*Zval/r beyond r=  1.7165
V l=3 = -2*Zval/r beyond r=  1.6951
All V_l potentials equal beyond r=  1.7165
This should be close to max(r_c) in ps generation
All pots = -2*Zval/r beyond r=  1.7165

VLOCAL1: 99.0% of the norm of Vloc inside     14.733 Ry
VLOCAL1: 99.9% of the norm of Vloc inside     33.577 Ry
atom: Maximum radius for 4*pi*r*r*local-pseudopot. charge    2.04484
atom: Maximum radius for r*vlocal+2*Zval:    1.75994
GHOST: No ghost state for L =  0
GHOST: No ghost state for L =  1
GHOST: No ghost state for L =  2
GHOST: No ghost state for L =  3

KBgen: Kleinman-Bylander projectors: 
   l= 0   rc=  1.897051   el= -0.693730   Ekb=  4.595746   kbcos=  0.286105
   l= 1   rc=  1.920920   el= -0.265236   Ekb= -2.350715   kbcos= -0.315747
   l= 2   rc=  2.044840   el=  0.002055   Ekb= -0.690767   kbcos= -0.013822
   l= 3   rc=  2.149707   el=  0.003188   Ekb= -0.315358   kbcos= -0.002055

KBgen: Total number of  Kleinman-Bylander projectors:   16
atom: -------------------------------------------------------------------------

atom: SANKEY-TYPE ORBITALS:
atom: Selected multiple-zeta basis: split     

SPLIT: Orbitals with angular momentum L= 0

SPLIT: Basis orbitals for state 2s

SPLIT: PAO cut-off radius determined from an
SPLIT: energy shift=  0.007350 Ry

   izeta = 1
                 lambda =    1.000000
                     rc =    5.422032
                 energy =   -0.686029
                kinetic =    0.576707
    potential(screened) =   -1.262736
       potential(ionic) =   -3.271094

   izeta = 2
                 rmatch =    4.222573
              splitnorm =    0.150000
                 energy =   -0.602132
                kinetic =    0.858975
    potential(screened) =   -1.461107
       potential(ionic) =   -3.582536

SPLIT: Orbitals with angular momentum L= 1

SPLIT: Basis orbitals for state 2p

SPLIT: PAO cut-off radius determined from an
SPLIT: energy shift=  0.007350 Ry

   izeta = 1
                 lambda =    1.000000
                     rc =    6.790259
                 energy =   -0.258578
                kinetic =    1.481412
    potential(screened) =   -1.739989
       potential(ionic) =   -3.657461

   izeta = 2
                 rmatch =    4.608740
              splitnorm =    0.150000
                 energy =   -0.173757
                kinetic =    2.186690
    potential(screened) =   -2.360447
       potential(ionic) =   -4.464260

POLgen: Perturbative polarization orbital with L=  2

POLgen: Polarization orbital for state 2p

   izeta = 1
                     rc =    6.790259
                 energy =    0.684082
                kinetic =    1.471481
    potential(screened) =   -0.787399
       potential(ionic) =   -2.406985
atom: Total number of Sankey-type orbitals: 13

atm_pop: Valence configuration (for local Pseudopot. screening):
 2s( 2.00)                                                            
 2p( 1.00)                                                            
Vna: chval, zval:    3.00000   3.00000

Vna:  Cut-off radius for the neutral-atom potential:   6.790259
comcore: Pseudo-core radius Rcore=  2.122997

atom: _________________________________________________________________________

<basis_specs>
===============================================================================
C                    Z=   6    Mass=  12.010        Charge= 0.17977+309
Lmxo=1 Lmxkb= 3    BasisType=split      Semic=F
L=0  Nsemic=0  Cnfigmx=2
          n=1  nzeta=2  polorb=0
            splnorm:   0.15000    
               vcte:    0.0000    
               rinn:    0.0000    
                rcs:    0.0000      0.0000    
            lambdas:    1.0000      1.0000    
L=1  Nsemic=0  Cnfigmx=2
          n=1  nzeta=2  polorb=1
            splnorm:   0.15000    
               vcte:    0.0000    
               rinn:    0.0000    
                rcs:    0.0000      0.0000    
            lambdas:    1.0000      1.0000    
-------------------------------------------------------------------------------
L=0  Nkbl=1  erefs: 0.17977+309
L=1  Nkbl=1  erefs: 0.17977+309
L=2  Nkbl=1  erefs: 0.17977+309
L=3  Nkbl=1  erefs: 0.17977+309
===============================================================================
</basis_specs>

atom: Called for C                     (Z =   6)

read_vps: Pseudopotential generation method:
read_vps: ATM3      Troullier-Martins                       
Total valence charge:    4.00000

read_vps: Pseudopotential includes a core correction:
read_vps: Pseudo-core for xc-correction

xc_check: Exchange-correlation functional:
xc_check: GGA Perdew, Burke & Ernzerhof 1996
V l=0 = -2*Zval/r beyond r=  1.5227
V l=1 = -2*Zval/r beyond r=  1.5227
V l=2 = -2*Zval/r beyond r=  1.5227
V l=3 = -2*Zval/r beyond r=  1.5038
All V_l potentials equal beyond r=  1.5227
This should be close to max(r_c) in ps generation
All pots = -2*Zval/r beyond r=  1.5227

VLOCAL1: 99.0% of the norm of Vloc inside     18.722 Ry
VLOCAL1: 99.9% of the norm of Vloc inside     42.668 Ry
atom: Maximum radius for 4*pi*r*r*local-pseudopot. charge    1.83678
atom: Maximum radius for r*vlocal+2*Zval:    1.58088
GHOST: No ghost state for L =  0
GHOST: No ghost state for L =  1
GHOST: No ghost state for L =  2
GHOST: No ghost state for L =  3

KBgen: Kleinman-Bylander projectors: 
   l= 0   rc=  1.704034   el= -1.009801   Ekb=  5.335044   kbcos=  0.316824
   l= 1   rc=  1.704034   el= -0.388707   Ekb= -3.785862   kbcos= -0.366464
   l= 2   rc=  1.791422   el=  0.001971   Ekb= -0.970471   kbcos= -0.009212
   l= 3   rc=  1.859892   el=  0.003065   Ekb= -0.399525   kbcos= -0.001223

KBgen: Total number of  Kleinman-Bylander projectors:   16
atom: -------------------------------------------------------------------------

atom: SANKEY-TYPE ORBITALS:
atom: Selected multiple-zeta basis: split     

SPLIT: Orbitals with angular momentum L= 0

SPLIT: Basis orbitals for state 2s

SPLIT: PAO cut-off radius determined from an
SPLIT: energy shift=  0.007350 Ry

   izeta = 1
                 lambda =    1.000000
                     rc =    4.632753
                 energy =   -1.002270
                kinetic =    0.855760
    potential(screened) =   -1.858031
       potential(ionic) =   -5.417575

   izeta = 2
                 rmatch =    3.431921
              splitnorm =    0.150000
                 energy =   -0.867111
                kinetic =    1.300804
    potential(screened) =   -2.167915
       potential(ionic) =   -5.962684

SPLIT: Orbitals with angular momentum L= 1

SPLIT: Basis orbitals for state 2p

SPLIT: PAO cut-off radius determined from an
SPLIT: energy shift=  0.007350 Ry

   izeta = 1
                 lambda =    1.000000
                     rc =    5.658549
                 energy =   -0.381140
                kinetic =    2.399701
    potential(screened) =   -2.780841
       potential(ionic) =   -6.206085

   izeta = 2
                 rmatch =    3.653288
              splitnorm =    0.150000
                 energy =   -0.249149
                kinetic =    3.542762
    potential(screened) =   -3.791911
       potential(ionic) =   -7.581078

POLgen: Perturbative polarization orbital with L=  2

POLgen: Polarization orbital for state 2p

   izeta = 1
                     rc =    5.658549
                 energy =    1.109913
                kinetic =    2.304789
    potential(screened) =   -1.194876
       potential(ionic) =   -4.013592
atom: Total number of Sankey-type orbitals: 13

atm_pop: Valence configuration (for local Pseudopot. screening):
 2s( 2.00)                                                            
 2p( 2.00)                                                            
Vna: chval, zval:    4.00000   4.00000

Vna:  Cut-off radius for the neutral-atom potential:   5.658549
comcore: Pseudo-core radius Rcore=  1.791422

atom: _________________________________________________________________________

prinput: Basis input ----------------------------------------------------------

PAO.BasisType split     

%block ChemicalSpeciesLabel
    1    5 B                       # Species index, atomic number, species label
    2    6 C                       # Species index, atomic number, species label
%endblock ChemicalSpeciesLabel

%block PAO.Basis                 # Define Basis set
B                     2                    # Species label, number of l-shells
 n=2   0   2                         # n, l, Nzeta 
   5.422      4.223   
   1.000      1.000   
 n=2   1   2 P   1                   # n, l, Nzeta, Polarization, NzetaPol
   6.790      4.609   
   1.000      1.000   
C                     2                    # Species label, number of l-shells
 n=2   0   2                         # n, l, Nzeta 
   4.633      3.432   
   1.000      1.000   
 n=2   1   2 P   1                   # n, l, Nzeta, Polarization, NzetaPol
   5.659      3.653   
   1.000      1.000   
%endblock PAO.Basis

prinput: ----------------------------------------------------------------------

coor:   Atomic-coordinates input format  =     Cartesian coordinates
coor:                                          (in Angstroms)

siesta: Atomic coordinates (Bohr) and species
siesta:      2.23554   1.32097   0.00000  1        1
siesta:     34.83141  22.82873   0.00000  1        2
siesta:     37.15930  18.79590   0.00000  1        3
siesta:     32.50278  10.73026   0.00000  1        4
siesta:      9.21981   2.66461   0.00000  1        5
siesta:     11.54782   1.32097   0.00000  1        6
siesta:     18.53210   2.66461   0.00000  1        7
siesta:     20.86199   1.32097   0.00000  1        8
siesta:     27.84627   2.66461   0.00000  1        9
siesta:      6.89193   6.69743   0.00000  1       10
siesta:     16.20421   6.69743   0.00000  1       11
siesta:     25.51838   6.69743   0.00000  1       12
siesta:      6.89205   9.38661   0.00000  1       13
siesta:     13.87633  10.73026   0.00000  1       14
siesta:     16.20434   9.38661   0.00000  1       15
siesta:     23.19050  10.73026   0.00000  1       16
siesta:     11.54845  14.76308   0.00000  1       17
siesta:     20.86262  14.76308   0.00000  1       18
siesta:     11.54857  17.45226   0.00000  1       19
siesta:     18.53284  18.79590   0.00000  1       20
siesta:     16.20496  22.82873   0.00000  1       21
siesta:     25.51851   9.38661   0.00000  1       22
siesta:     20.86274  17.45226   0.00000  1       23
siesta:     30.17490  14.76308   0.00000  1       24
siesta:     27.84702  18.79590   0.00000  1       25
siesta:     25.51913  22.82873   0.00000  1       26
siesta:     30.17503  17.45226   0.00000  1       27
siesta:      4.56367   2.66461   0.00000  2       28
siesta:     32.50328  21.48508   0.00000  2       29
siesta:     34.83116  17.45226   0.00000  2       30
siesta:     32.50291  13.41944   0.00000  2       31
siesta:     34.83104  14.76308   0.00000  2       32
siesta:     30.17465   9.38661   0.00000  2       33
siesta:     27.84639   5.35379   0.00000  2       34
siesta:     30.17453   6.69743   0.00000  2       35
siesta:     27.84714  21.48508   0.00000  2       36
siesta:     30.17527  22.82873   0.00000  2       37
siesta:      6.89168   1.32097   0.00000  2       38
siesta:     13.87595   2.66461   0.00000  2       39
siesta:     16.20396   1.32097   0.00000  2       40
siesta:     23.19013   2.66461   0.00000  2       41
siesta:     25.51813   1.32097   0.00000  2       42
siesta:      4.56380   5.35379   0.00000  2       43
siesta:      9.21994   5.35379   0.00000  2       44
siesta:     11.54807   6.69743   0.00000  2       45
siesta:     13.87608   5.35379   0.00000  2       46
siesta:     18.53411   5.35379   0.00000  2       47
siesta:     20.86224   6.69743   0.00000  2       48
siesta:     23.19025   5.35379   0.00000  2       49
siesta:      9.22019  10.73026   0.00000  2       50
siesta:     11.54820   9.38661   0.00000  2       51
siesta:     18.53247  10.73026   0.00000  2       52
siesta:     20.86237   9.38661   0.00000  2       53
siesta:      9.22031  13.41944   0.00000  2       54
siesta:     13.87645  13.41944   0.00000  2       55
siesta:     16.20459  14.76308   0.00000  2       56
siesta:     18.53448  13.41944   0.00000  2       57
siesta:     13.87670  18.79590   0.00000  2       58
siesta:     16.20471  17.45226   0.00000  2       59
siesta:     13.87683  21.48508   0.00000  2       60
siesta:     18.53486  21.48508   0.00000  2       61
siesta:     20.86299  22.82873   0.00000  2       62
siesta:     27.84664  10.73026   0.00000  2       63
siesta:     23.19063  13.41944   0.00000  2       64
siesta:     25.51876  14.76308   0.00000  2       65
siesta:     23.19088  18.79590   0.00000  2       66
siesta:     27.84677  13.41944   0.00000  2       67
siesta:     25.51888  17.45226   0.00000  2       68
siesta:     23.19100  21.48508   0.00000  2       69
siesta:     32.50316  18.79590   0.00000  2       70
siesta:     37.16131  21.48508   0.00000  2       71
siesta:     39.48945  22.82873   0.00000  2       72

siesta: System type = slab      

initatomlists: Number of atoms, orbitals, and projectors:     72   936  1152

siesta: ******************** Simulation parameters ****************************
siesta:
siesta: The following are some of the parameters of the simulation.
siesta: A complete list of the parameters used, including default values,
siesta: can be found in file out.fdf
siesta:
redata: Non-Collinear-spin run           =     F
redata: SpinPolarized (Up/Down) run      =     F
redata: Number of spin components        =     1
redata: Long output                      =     F
redata: Number of Atomic Species         =        2
redata: Charge density info will appear in .RHO file
redata: Write Mulliken Pop.              =     NO
redata: Mesh Cutoff                      =   200.0000  Ry
redata: Net charge of the system         =     0.0000 |e|
redata: Max. number of SCF Iter          =      500
redata: SCF convergence failure will abort job
redata: Performing Pulay mixing using    =    10 iterations
redata: Mix DM in first SCF step ?       =     F
redata: Write Pulay info on disk?        =     F
redata: Discard 1st Pulay DM after  kick =     F
redata: New DM Mixing Weight             =     0.0500
redata: New DM Occupancy tolerance       = 0.000000000001
redata: No kicks to SCF
redata: DM Mixing Weight for Kicks       =     0.5000
redata: DM Tolerance for SCF             =     0.000100
redata: Require Energy convergence for SCF =     F
redata: DM Energy tolerance for SCF      =     0.000100 eV
redata: Require Harris convergence for SCF =     F
redata: DM Harris energy tolerance for SCF =     0.000100 eV
redata: Using Saved Data (generic)   =     F
redata: Use continuation files for DM    =     T
redata: Neglect nonoverlap interactions  =     F
redata: Method of Calculation            =     Diagonalization
redata: Divide and Conquer               =     T
redata: Electronic Temperature           =     0.0019  Ry
redata: Fix the spin of the system       =     F
redata: Dynamics option                  =     Verlet MD run
redata: Initial MD time step             =        1
redata:   Final MD time step             =        1
redata: Length of MD time step           =     1.0000  fs
redata: Initial Temperature of MD run    =     0.0000  K
redata: Perform a MD quench              =     F
redata: ***********************************************************************
Total number of electrons:   261.000000
Total ionic charge:   261.000000

* ProcessorY, Blocksize:    3  24

k-point displ. along   1 input, could be:     0.50    0.00
k-point displ. along   2 input, could be:     0.50    0.00
 Kpoints in:          231 . Kpoints trimmed:          231

siesta: k-grid: Number of k-points =   231
siesta: k-grid: Cutoff (effective) =     5.000 Ang
siesta: k-grid: Supercell and displacements
siesta: k-grid:   21   0   0      0.500
siesta: k-grid:    0  21   0      0.500
siesta: k-grid:    0   0   1      0.000
Naive supercell factors:     2    2    2

superc: Internal auxiliary supercell:     2 x     2 x     2  =       8
superc: Number of atoms, orbitals, and projectors:    576   7488   9216

* Maximum dynamic memory allocated =     4 MB

siesta:                 ==============================
                            Begin MD step =      1
                        ==============================

superc: Internal auxiliary supercell:     2 x     2 x     2  =       8
superc: Number of atoms, orbitals, and projectors:    576   7488   9216

outcell: Unit cell vectors (Ang):
       14.785000    0.000000    0.000000
        7.393000   12.805052    0.000000
        0.000000    0.000000   10.000000

outcell: Cell vector modules (Ang)   :   14.785000   14.786000   10.000000
outcell: Cell angles (23,13,12) (deg):     90.0000     90.0000     60.0000
outcell: Cell volume (Ang**3)        :   1893.2269
New_DM. Step:     1
Initializing Density Matrix...

iodm: Reading Density Matrix from files

InitMesh: MESH =   120 x   120 x    90 =     1296000
InitMesh: Mesh cutoff (required, used) =   200.000   223.865 Ry

* Maximum dynamic memory allocated =   166 MB

stepf: Fermi-Dirac step function

siesta: Program's energy decomposition (eV):
siesta: Ebs     =     -3330.522683
siesta: Eions   =     14945.479869
siesta: Ena     =      3358.760835
siesta: Ekin    =      6482.073092
siesta: Enl     =      -472.982831
siesta: DEna    =      -385.091066
siesta: DUscf   =        43.162871
siesta: DUext   =         0.000000
siesta: Exc     =     -4121.906506
siesta: eta*DQ  =         0.000000
siesta: Emadel  =         0.000000
siesta: Emeta   =         0.000000
siesta: Emolmec =         0.000000
siesta: Ekinion =         0.000000
siesta: Eharris =    -10041.466806
siesta: Etot    =    -10041.463474
siesta: FreeEng =    -10041.463474

siesta: iscf   Eharris(eV)      E_KS(eV)   FreeEng(eV)   dDmax  Ef(eV)
siesta:    1   -10041.4668   -10041.4635   -10041.4635  0.0002 -6.1612
timer: Routine,Calls,Time,% = IterSCF        1    1193.522  98.84
elaps: Routine,Calls,Wall,% = IterSCF        1     104.007  98.84
siesta:    2   -10041.4668   -10041.4668   -10041.5135  0.0005 -6.1608
siesta:    3   -10041.4668   -10041.4641   -10041.5108  0.0001 -6.1611
siesta:    4   -10041.4668   -10041.4659   -10041.5126  0.0001 -6.1608
siesta:    5   -10041.4668   -10041.4664   -10041.5131  0.0000 -6.1607

siesta: E_KS(eV) =           -10041.4665

siesta: E_KS - E_eggbox =    -10041.4665

siesta: Atomic forces (eV/Ang):
----------------------------------------
   Tot    0.367345   -0.131608    0.000000
----------------------------------------
   Max    5.541329
   Res    2.468019    sqrt( Sum f_i^2 / 3N )
----------------------------------------
   Max    5.541329    constrained

Stress-tensor-Voigt (kbar):     -274.14     -241.00       -0.72      -28.56        0.00        0.00
(Free)E + p*V (eV/cell)    -9838.3241
Target enthalpy (eV/cell)   -10041.5132

siesta: Stress tensor (static) (eV/Ang**3):
        -0.171104   -0.017825    0.000000
        -0.017825   -0.150421    0.000000
         0.000000    0.000000   -0.000447

siesta: Pressure (static):        171.95417823  kBar

siesta: Stress tensor (total) (eV/Ang**3):
        -0.171104   -0.017825    0.000000
        -0.017825   -0.150421    0.000000
         0.000000    0.000000   -0.000447

siesta: Pressure (total):        171.95417823  kBar

siesta: Temp_ion =       0.000 K

* Maximum dynamic memory allocated =   266 MB

siesta: Program's energy decomposition (eV):
siesta: Ebs     =     -3330.337577
siesta: Eions   =     14945.479869
siesta: Ena     =      3358.760835
siesta: Ekin    =      6482.165727
siesta: Enl     =      -472.982177
siesta: DEna    =      -385.171438
siesta: DUscf   =        43.172639
siesta: DUext   =         0.000000
siesta: Exc     =     -4121.932175
siesta: eta*DQ  =         0.000000
siesta: Emadel  =         0.000000
siesta: Emeta   =         0.000000
siesta: Emolmec =         0.000000
siesta: Ekinion =         0.000000
siesta: Eharris =    -10041.466806
siesta: Etot    =    -10041.466458
siesta: FreeEng =    -10041.513166

siesta: Final energy (eV):
siesta:  Band Struct. =   -3330.337577
siesta:       Kinetic =    6482.165727
siesta:       Hartree =   18831.713907
siesta:    Ext. field =       0.000000
siesta:   Exch.-corr. =   -4121.932175
siesta:  Ion-electron =  -43511.996600
siesta:       Ion-ion =   12278.582683
siesta:       Ekinion =       0.000000
siesta:         Total =  -10041.466458

siesta: Atomic forces (eV/Ang):
siesta:      1    5.522921    3.166937    0.000000
siesta:      2   -0.879265   -5.235531    0.000000
siesta:      3   -4.987188    1.842472    0.000000
siesta:      4   -4.984857    1.840214    0.000000
siesta:      5   -5.001098    1.846045    0.000000
siesta:      6    5.525256    3.159219    0.000000
siesta:      7   -4.971591    1.826589    0.000000
siesta:      8    5.508382    3.179663    0.000000
siesta:      9   -4.987400    1.834872    0.000000
siesta:     10   -0.902248   -5.247787    0.000000
siesta:     11   -0.872311   -5.263658    0.000000
siesta:     12   -0.899194   -5.247985    0.000000
siesta:     13    5.514447    3.195627    0.000000
siesta:     14   -5.000752    1.849262    0.000000
siesta:     15    5.541329    3.185316    0.000000
siesta:     16   -5.006335    1.850117    0.000000
siesta:     17   -0.903830   -5.246354    0.000000
siesta:     18   -0.908653   -5.248340    0.000000
siesta:     19    5.517919    3.198049    0.000000
siesta:     20   -4.968850    1.830590    0.000000
siesta:     21   -0.874063   -5.235750    0.000000
siesta:     22    5.530003    3.185960    0.000000
siesta:     23    5.502216    3.208637    0.000000
siesta:     24   -0.900298   -5.247691    0.000000
siesta:     25   -5.000629    1.849381    0.000000
siesta:     26   -0.894257   -5.221203    0.000000
siesta:     27    5.531110    3.185901    0.000000
siesta:     28    2.280336    1.312553    0.000000
siesta:     29   -2.340363   -1.819708    0.000000
siesta:     30   -2.740308   -1.136452    0.000000
siesta:     31    4.177251    2.396311    0.000000
siesta:     32   -0.945183   -0.558903    0.000000
siesta:     33   -2.741893   -1.138683    0.000000
siesta:     34    4.177361    2.396229    0.000000
siesta:     35   -0.946265   -0.559702    0.000000
siesta:     36    4.172800    2.398991    0.000000
siesta:     37   -0.962263   -0.535010    0.000000
siesta:     38   -2.740017   -1.155612    0.000000
siesta:     39    2.286704    1.310533    0.000000
siesta:     40   -2.736724   -1.154793    0.000000
siesta:     41    2.277706    1.312035    0.000000
siesta:     42   -2.738970   -1.154967    0.000000
siesta:     43   -2.358103   -1.818724    0.000000
siesta:     44    4.172705    2.397713    0.000000
siesta:     45   -0.958029   -0.554801    0.000000
siesta:     46   -2.341377   -1.824631    0.000000
siesta:     47    4.147767    2.409050    0.000000
siesta:     48   -0.966390   -0.552732    0.000000
siesta:     49   -2.343010   -1.825340    0.000000
siesta:     50    2.283343    1.317893    0.000000
siesta:     51   -2.743528   -1.136699    0.000000
siesta:     52    2.314550    1.309594    0.000000
siesta:     53   -2.768577   -1.129503    0.000000
siesta:     54   -2.358678   -1.819252    0.000000
siesta:     55    4.179179    2.396680    0.000000
siesta:     56   -0.933058   -0.560870    0.000000
siesta:     57   -2.379417   -1.818644    0.000000
siesta:     58    2.279704    1.315846    0.000000
siesta:     59   -2.737822   -1.138545    0.000000
siesta:     60   -2.324672   -1.827159    0.000000
siesta:     61    4.150765    2.413356    0.000000
siesta:     62   -0.967987   -0.536083    0.000000
siesta:     63    2.285159    1.316731    0.000000
siesta:     64    4.174938    2.397442    0.000000
siesta:     65   -0.959055   -0.554702    0.000000
siesta:     66    2.280274    1.316802    0.000000
siesta:     67   -2.346598   -1.824222    0.000000
siesta:     68   -2.744241   -1.136201    0.000000
siesta:     69   -2.347137   -1.819982    0.000000
siesta:     70    2.282744    1.316612    0.000000
siesta:     71    4.146739    2.414446    0.000000
siesta:     72   -0.983777   -0.529058    0.000000
siesta: ----------------------------------------
siesta:    Tot    0.367345   -0.131608    0.000000

siesta: Stress tensor (static) (eV/Ang**3):
siesta:    -0.171104   -0.017825    0.000000
siesta:    -0.017825   -0.150421    0.000000
siesta:     0.000000    0.000000   -0.000447

siesta: Cell volume =       1893.226895 Ang**3

siesta: Pressure (static):
siesta:                Solid            Molecule  Units
siesta:           0.00116890          0.00168177  Ry/Bohr**3
siesta:           0.10732420          0.15441484  eV/Ang**3
siesta:         171.95417823        247.40252970  kBar
(Free)E+ p_basis*V_orbitals  =      -10002.244808
(Free)Eharris+ p_basis*V_orbitals  =      -10002.245194

siesta: Electric dipole (a.u.)  =    0.000000    0.000000    0.000000
siesta: Electric dipole (Debye) =    0.000000    0.000000    0.000000

* Maximum dynamic memory allocated : Node    0 =   266 MB
* Maximum dynamic memory allocated : Node    1 =   163 MB
* Maximum dynamic memory allocated : Node    2 =   165 MB
* Maximum dynamic memory allocated : Node    3 =   253 MB
* Maximum dynamic memory allocated : Node    4 =   261 MB
* Maximum dynamic memory allocated : Node    5 =   157 MB
* Maximum dynamic memory allocated : Node    6 =   160 MB
* Maximum dynamic memory allocated : Node    7 =   253 MB
* Maximum dynamic memory allocated : Node    8 =   261 MB
* Maximum dynamic memory allocated : Node    9 =   157 MB
* Maximum dynamic memory allocated : Node   10 =   160 MB
* Maximum dynamic memory allocated : Node   11 =   253 MB

* Maximum memory occured during cdiag                         

timer: CPU execution times:
timer:  Routine       Calls   Time/call    Tot.time        %
timer:  siesta            1    5642.038    5642.038   100.00
timer:  Setup             1       3.196       3.196     0.06
timer:  bands             1       0.016       0.016     0.00
timer:  writewave         1       0.022       0.022     0.00
timer:  KSV_init          1       0.002       0.002     0.00
timer:  IterMD            1    5632.636    5632.636    99.83
timer:  hsparse           1       0.280       0.280     0.00
timer:  overlap           1       8.404       8.404     0.15
timer:  IterSCF           5    1092.707    5463.533    96.84
timer:  kinefsm           2       4.276       8.552     0.15
timer:  nlefsm            2      21.561      43.122     0.76
timer:  DHSCF             6     100.804     604.823    10.72
timer:  DHSCF1            1       1.191       1.191     0.02
timer:  DHSCF2            1      43.366      43.366     0.77
timer:  REORD            50       0.002       0.092     0.00
timer:  POISON            7       0.673       4.708     0.08
timer:  DHSCF3            6      88.323     529.935     9.39
timer:  rhoofd            6      17.524     105.144     1.86
timer:  cellXC            6       2.584      15.502     0.27
timer:  vmat              6      44.815     268.888     4.77
timer:  MolMec            2       0.000       0.000     0.00
timer:  diagon            5     983.335    4916.674    87.14
timer:  cdiag           200      16.994    3269.665    57.95
timer:  cdiag1          200       0.887     170.849     3.03
timer:  cdiag2          200       3.082     593.325    10.52
timer:  cdiag3          200      12.835    2468.991    43.76
timer:  cdiag4          200       0.187      35.941     0.64
timer:  DHSCF4            1      30.252      30.252     0.54
timer:  dfscf             1      28.104      28.104     0.50
timer:  overfsm           1       0.344       0.344     0.01
timer:  optical           1       5.560       5.560     0.10
  

elaps: ELAPSED times:
elaps:  Routine       Calls   Time/call    Tot.time        %
elaps:  siesta            1     491.633     491.633   100.00
elaps:  Setup             1       0.279       0.279     0.06
elaps:  bands             1       0.001       0.001     0.00
elaps:  writewave         1       0.002       0.002     0.00
elaps:  KSV_init          1       0.000       0.000     0.00
elaps:  IterMD            1     490.813     490.813    99.83
elaps:  hsparse           1       0.028       0.028     0.01
elaps:  overlap           1       0.713       0.713     0.14
elaps:  IterSCF           5      95.217     476.086    96.84
elaps:  kinefsm           2       0.367       0.733     0.15
elaps:  nlefsm            2       1.929       3.857     0.78
elaps:  DHSCF             6       9.172      55.030    11.19
elaps:  DHSCF1            1       0.101       0.101     0.02
elaps:  DHSCF2            1       3.781       3.781     0.77
elaps:  REORD            50       0.000       0.014     0.00
elaps:  POISON            7       0.059       0.413     0.08
elaps:  DHSCF3            6       7.697      46.183     9.39
elaps:  rhoofd            6       2.603      15.616     3.18
elaps:  cellXC            6       0.225       1.351     0.27
elaps:  vmat              6       3.905      23.428     4.77
elaps:  MolMec            2       0.000       0.000     0.00
elaps:  diagon            5      85.684     428.422    87.14
elaps:  cdiag           200       1.477     295.422    60.09
elaps:  cdiag1          200       0.080      16.001     3.25
elaps:  cdiag2          200       0.277      55.302    11.25
elaps:  cdiag3          200       1.103     220.626    44.88
elaps:  cdiag4          200       0.017       3.456     0.70
elaps:  DHSCF4            1       4.957       4.957     1.01
elaps:  dfscf             1       4.673       4.673     0.95
elaps:  overfsm           1       0.036       0.036     0.01
elaps:  optical           1       0.000       0.000     0.00
  
>> End of run:   6-APR-2016  14:33:33
