Siesta Version:                                        siesta-3.2-pl-3
Architecture  : x86_64-unknown-linux-gnu--unknown
Compiler flags: mpiifort -g -O2 -fPIC -xSSE4.1 -fp-model source -shared-intel 
PARALLEL version

* Running on   12 nodes in parallel
>> Start of run:   5-MAY-2016  21:31:02

                           ***********************       
                           *  WELCOME TO SIESTA  *       
                           ***********************       

reinit: Reading from standard input
************************** Dump of input data file ****************************
#(1) General system descriptors
SystemName            GRP_doping    # Descriptive name of the system
SystemLabel           GRP_doping    # Short name for naming files
%include STRUCT.fdf
%include KPT.fdf
%include BASIS.fdf
#%include TS.fdf # for transiesta calculation
#(4) DFT, Grid, SCF
XC.functional         GGA           # LDA or GGA (default = LDA)
XC.authors            PBE           # CA (Ceperley-Aldr) = PZ
                                    #    (Perdew-Zunger) - LDA - Default
                                    # PW92 (Perdew-Wang-92) - LDA
                                    # PBE (Perdew-Burke-Ernzerhof) - GGA
MeshCutoff            200.000000    Ry      # Default: 50.0 Ry ~ 0.444 Bohr
                                    #         100.0 Ry ~ 0.314 Bohr
MaxSCFIterations      500           # Default: 50
DM.MixingWeight       0.05          # Default: 0.25
DM.NumberPulay        10            # Default: 0
DM.PulayOnFile        F             # SystemLabel.P1, SystemLabel.P2
DM.Tolerance          1.d-4         # Default: 1.d-4
DM.UseSaveDM          .true.        # because of the bug
SCFMustConverge       .true.
NeglNonOverlapInt     F             # Default: F
#(5) Eigenvalue problem: order-N or diagonalization
SolutionMethod        Diagon        # or Transiesta
ElectronicTemperature 300.0 K       # Default: 300.0 K
#(6) Molecular dynamics and relaxations
#MD.TypeOfRun          CG            # Type of dynamics:
#MD.VariableCell       F
#MD.NumCGsteps         0           # 0 for single-point / 100 for gopt
#MD.MaxCGDispl         0.2 Bohr      # Default: 0.2 Bohr
#MD.MaxForceTol        0.02 eV/Ang   # Default: 0.04 eV/Ang
#MD.MaxStressTol       1.0 GPa       # Default: 1.0 GPa
# Geometry Constraints
#%block GeometryConstraints
#	position from 1 to 44
#%endblock GeometryConstraints
BandLinesScale   pi/a
%block BandLines
 1   0.00000000  0.00000000  0.00000000
50   0.00000000  0.07809418  0.00000000
50   0.04509075  0.07809242  0.00000000
20   0.00000000  0.00000000  0.00000000
%endblock BandLines
************************** End of input data file *****************************

reinit: -----------------------------------------------------------------------
reinit: System Name: GRP_doping
reinit: -----------------------------------------------------------------------
reinit: System Label: GRP_doping                                                  
reinit: -----------------------------------------------------------------------

initatom: Reading input for the pseudopotentials and atomic orbitals ----------
 Species number:            1  Label: N Atomic number:           7
 Species number:            2  Label: C Atomic number:           6
Ground state valence configuration:   2s02  2p03
Reading pseudopotential information in formatted form from N.psf

Valence configuration for pseudopotential generation:
2s( 2.00) rc: 1.48
2p( 3.00) rc: 1.48
3d( 0.00) rc: 1.48
4f( 0.00) rc: 1.48
Ground state valence configuration:   2s02  2p02
Reading pseudopotential information in formatted form from C.psf

Valence configuration for pseudopotential generation:
2s( 2.00) rc: 1.54
2p( 2.00) rc: 1.54
3d( 0.00) rc: 1.54
4f( 0.00) rc: 1.54
For N, standard SIESTA heuristics set lmxkb to 3
 (one more than the basis l, including polarization orbitals).
Use PS.lmax or PS.KBprojectors blocks to override.
For C, standard SIESTA heuristics set lmxkb to 3
 (one more than the basis l, including polarization orbitals).
Use PS.lmax or PS.KBprojectors blocks to override.

<basis_specs>
===============================================================================
N                    Z=   7    Mass=  14.010        Charge= 0.17977+309
Lmxo=1 Lmxkb= 3    BasisType=split      Semic=F
L=0  Nsemic=0  Cnfigmx=2
          n=1  nzeta=2  polorb=0
            splnorm:   0.15000    
               vcte:    0.0000    
               rinn:    0.0000    
                rcs:    0.0000      0.0000    
            lambdas:    1.0000      1.0000    
L=1  Nsemic=0  Cnfigmx=2
          n=1  nzeta=2  polorb=1
            splnorm:   0.15000    
               vcte:    0.0000    
               rinn:    0.0000    
                rcs:    0.0000      0.0000    
            lambdas:    1.0000      1.0000    
-------------------------------------------------------------------------------
L=0  Nkbl=1  erefs: 0.17977+309
L=1  Nkbl=1  erefs: 0.17977+309
L=2  Nkbl=1  erefs: 0.17977+309
L=3  Nkbl=1  erefs: 0.17977+309
===============================================================================
</basis_specs>

atom: Called for N                     (Z =   7)

read_vps: Pseudopotential generation method:
read_vps: ATM3      Troullier-Martins                       
Total valence charge:    5.00000

read_vps: Pseudopotential includes a core correction:
read_vps: Pseudo-core for xc-correction

xc_check: Exchange-correlation functional:
xc_check: GGA Perdew, Burke & Ernzerhof 1996
V l=0 = -2*Zval/r beyond r=  1.4606
V l=1 = -2*Zval/r beyond r=  1.4606
V l=2 = -2*Zval/r beyond r=  1.4606
V l=3 = -2*Zval/r beyond r=  1.4606
All V_l potentials equal beyond r=  1.4606
This should be close to max(r_c) in ps generation
All pots = -2*Zval/r beyond r=  1.4606

VLOCAL1: 99.0% of the norm of Vloc inside     20.347 Ry
VLOCAL1: 99.9% of the norm of Vloc inside     46.372 Ry
atom: Maximum radius for 4*pi*r*r*local-pseudopot. charge    1.76189
atom: Maximum radius for r*vlocal+2*Zval:    1.53550
GHOST: No ghost state for L =  0
GHOST: No ghost state for L =  1
GHOST: No ghost state for L =  2
GHOST: No ghost state for L =  3

KBgen: Kleinman-Bylander projectors: 
   l= 0   rc=  1.634559   el= -1.363963   Ekb=  5.296955   kbcos=  0.335621
   l= 1   rc=  1.614250   el= -0.521451   Ekb= -5.259161   kbcos= -0.433408
   l= 2   rc=  1.718383   el=  0.001991   Ekb= -1.271464   kbcos= -0.007566
   l= 3   rc=  1.761893   el=  0.003093   Ekb= -0.494769   kbcos= -0.001015

KBgen: Total number of  Kleinman-Bylander projectors:   16
atom: -------------------------------------------------------------------------

atom: SANKEY-TYPE ORBITALS:
atom: Selected multiple-zeta basis: split     

SPLIT: Orbitals with angular momentum L= 0

SPLIT: Basis orbitals for state 2s

SPLIT: PAO cut-off radius determined from an
SPLIT: energy shift=  0.007350 Ry

   izeta = 1
                 lambda =    1.000000
                     rc =    4.071465
                 energy =   -1.356470
                kinetic =    1.176977
    potential(screened) =   -2.533447
       potential(ionic) =   -8.057990

   izeta = 2
                 rmatch =    2.905100
              splitnorm =    0.150000
                 energy =   -1.158343
                kinetic =    1.813009
    potential(screened) =   -2.971352
       potential(ionic) =   -8.901931

SPLIT: Orbitals with angular momentum L= 1

SPLIT: Basis orbitals for state 2p

SPLIT: PAO cut-off radius determined from an
SPLIT: energy shift=  0.007350 Ry

   izeta = 1
                 lambda =    1.000000
                     rc =    4.972977
                 energy =   -0.513884
                kinetic =    3.441732
    potential(screened) =   -3.955616
       potential(ionic) =   -9.287901

   izeta = 2
                 rmatch =    3.054066
              splitnorm =    0.150000
                 energy =   -0.318226
                kinetic =    5.125348
    potential(screened) =   -5.443573
       potential(ionic) =  -11.380999

POLgen: Perturbative polarization orbital with L=  2

POLgen: Polarization orbital for state 2p

   izeta = 1
                     rc =    4.972977
                 energy =    1.607437
                kinetic =    3.268125
    potential(screened) =   -1.660688
       potential(ionic) =   -5.973652
atom: Total number of Sankey-type orbitals: 13

atm_pop: Valence configuration (for local Pseudopot. screening):
 2s( 2.00)                                                            
 2p( 3.00)                                                            
Vna: chval, zval:    5.00000   5.00000

Vna:  Cut-off radius for the neutral-atom potential:   4.972977
comcore: Pseudo-core radius Rcore=  1.554824

atom: _________________________________________________________________________

<basis_specs>
===============================================================================
C                    Z=   6    Mass=  12.010        Charge= 0.17977+309
Lmxo=1 Lmxkb= 3    BasisType=split      Semic=F
L=0  Nsemic=0  Cnfigmx=2
          n=1  nzeta=2  polorb=0
            splnorm:   0.15000    
               vcte:    0.0000    
               rinn:    0.0000    
                rcs:    0.0000      0.0000    
            lambdas:    1.0000      1.0000    
L=1  Nsemic=0  Cnfigmx=2
          n=1  nzeta=2  polorb=1
            splnorm:   0.15000    
               vcte:    0.0000    
               rinn:    0.0000    
                rcs:    0.0000      0.0000    
            lambdas:    1.0000      1.0000    
-------------------------------------------------------------------------------
L=0  Nkbl=1  erefs: 0.17977+309
L=1  Nkbl=1  erefs: 0.17977+309
L=2  Nkbl=1  erefs: 0.17977+309
L=3  Nkbl=1  erefs: 0.17977+309
===============================================================================
</basis_specs>

atom: Called for C                     (Z =   6)

read_vps: Pseudopotential generation method:
read_vps: ATM3      Troullier-Martins                       
Total valence charge:    4.00000

read_vps: Pseudopotential includes a core correction:
read_vps: Pseudo-core for xc-correction

xc_check: Exchange-correlation functional:
xc_check: GGA Perdew, Burke & Ernzerhof 1996
V l=0 = -2*Zval/r beyond r=  1.5227
V l=1 = -2*Zval/r beyond r=  1.5227
V l=2 = -2*Zval/r beyond r=  1.5227
V l=3 = -2*Zval/r beyond r=  1.5038
All V_l potentials equal beyond r=  1.5227
This should be close to max(r_c) in ps generation
All pots = -2*Zval/r beyond r=  1.5227

VLOCAL1: 99.0% of the norm of Vloc inside     18.722 Ry
VLOCAL1: 99.9% of the norm of Vloc inside     42.668 Ry
atom: Maximum radius for 4*pi*r*r*local-pseudopot. charge    1.83678
atom: Maximum radius for r*vlocal+2*Zval:    1.58088
GHOST: No ghost state for L =  0
GHOST: No ghost state for L =  1
GHOST: No ghost state for L =  2
GHOST: No ghost state for L =  3

KBgen: Kleinman-Bylander projectors: 
   l= 0   rc=  1.704034   el= -1.009801   Ekb=  5.335044   kbcos=  0.316824
   l= 1   rc=  1.704034   el= -0.388707   Ekb= -3.785862   kbcos= -0.366464
   l= 2   rc=  1.791422   el=  0.001971   Ekb= -0.970471   kbcos= -0.009212
   l= 3   rc=  1.859892   el=  0.003065   Ekb= -0.399525   kbcos= -0.001223

KBgen: Total number of  Kleinman-Bylander projectors:   16
atom: -------------------------------------------------------------------------

atom: SANKEY-TYPE ORBITALS:
atom: Selected multiple-zeta basis: split     

SPLIT: Orbitals with angular momentum L= 0

SPLIT: Basis orbitals for state 2s

SPLIT: PAO cut-off radius determined from an
SPLIT: energy shift=  0.007350 Ry

   izeta = 1
                 lambda =    1.000000
                     rc =    4.632753
                 energy =   -1.002270
                kinetic =    0.855760
    potential(screened) =   -1.858031
       potential(ionic) =   -5.417575

   izeta = 2
                 rmatch =    3.431921
              splitnorm =    0.150000
                 energy =   -0.867111
                kinetic =    1.300804
    potential(screened) =   -2.167915
       potential(ionic) =   -5.962684

SPLIT: Orbitals with angular momentum L= 1

SPLIT: Basis orbitals for state 2p

SPLIT: PAO cut-off radius determined from an
SPLIT: energy shift=  0.007350 Ry

   izeta = 1
                 lambda =    1.000000
                     rc =    5.658549
                 energy =   -0.381140
                kinetic =    2.399701
    potential(screened) =   -2.780841
       potential(ionic) =   -6.206085

   izeta = 2
                 rmatch =    3.653288
              splitnorm =    0.150000
                 energy =   -0.249149
                kinetic =    3.542762
    potential(screened) =   -3.791911
       potential(ionic) =   -7.581078

POLgen: Perturbative polarization orbital with L=  2

POLgen: Polarization orbital for state 2p

   izeta = 1
                     rc =    5.658549
                 energy =    1.109913
                kinetic =    2.304789
    potential(screened) =   -1.194876
       potential(ionic) =   -4.013592
atom: Total number of Sankey-type orbitals: 13

atm_pop: Valence configuration (for local Pseudopot. screening):
 2s( 2.00)                                                            
 2p( 2.00)                                                            
Vna: chval, zval:    4.00000   4.00000

Vna:  Cut-off radius for the neutral-atom potential:   5.658549
comcore: Pseudo-core radius Rcore=  1.791422

atom: _________________________________________________________________________

prinput: Basis input ----------------------------------------------------------

PAO.BasisType split     

%block ChemicalSpeciesLabel
    1    7 N                       # Species index, atomic number, species label
    2    6 C                       # Species index, atomic number, species label
%endblock ChemicalSpeciesLabel

%block PAO.Basis                 # Define Basis set
N                     2                    # Species label, number of l-shells
 n=2   0   2                         # n, l, Nzeta 
   4.071      2.905   
   1.000      1.000   
 n=2   1   2 P   1                   # n, l, Nzeta, Polarization, NzetaPol
   4.973      3.054   
   1.000      1.000   
C                     2                    # Species label, number of l-shells
 n=2   0   2                         # n, l, Nzeta 
   4.633      3.432   
   1.000      1.000   
 n=2   1   2 P   1                   # n, l, Nzeta, Polarization, NzetaPol
   5.659      3.653   
   1.000      1.000   
%endblock PAO.Basis

prinput: ----------------------------------------------------------------------

coor:   Atomic-coordinates input format  =     Fractional

siesta: Atomic coordinates (Bohr) and species
siesta:      6.95932  17.38257   0.00000  1        1
siesta:     -0.02582  10.66124   0.00000  1        2
siesta:     -0.02582  13.34970   0.00000  1        3
siesta:      4.63094  18.72698   0.00000  1        4
siesta:     -2.35420  25.44831   0.00000  1        5
siesta:    -11.66772  22.75985   0.00000  1        6
siesta:    -11.66772  25.44831   0.00000  1        7
siesta:     -9.33934  26.79272   0.00000  1        8
siesta:     -9.33934  29.48119   0.00000  1        9
siesta:     -4.68258  26.79272   0.00000  1       10
siesta:     -4.68258  29.48119   0.00000  1       11
siesta:     -2.35420  30.82560   0.00000  1       12
siesta:     -2.35420  33.51406   0.00000  1       13
siesta:     -7.01096  30.82560   0.00000  1       14
siesta:     -0.02582  34.85847   0.00000  1       15
siesta:     -0.02582  37.54693   0.00000  1       16
siesta:     -0.02582   2.59549   0.00000  2       17
siesta:     -0.02582   5.28395   0.00000  2       18
siesta:     -2.35420  38.89134   0.00000  2       19
siesta:     -2.35420  41.57980   0.00000  2       20
siesta:      2.30256  38.89134   0.00000  2       21
siesta:      2.30256  41.57980   0.00000  2       22
siesta:      4.63094  34.85847   0.00000  2       23
siesta:      4.63094  37.54693   0.00000  2       24
siesta:      6.95932  30.82560   0.00000  2       25
siesta:      6.95932  33.51406   0.00000  2       26
siesta:      9.28770  26.79272   0.00000  2       27
siesta:      9.28770  29.48119   0.00000  2       28
siesta:     -4.68258  34.85847   0.00000  2       29
siesta:     -4.68258  37.54693   0.00000  2       30
siesta:      2.30256   6.62836   0.00000  2       31
siesta:      2.30256   9.31683   0.00000  2       32
siesta:      4.63094  10.66124   0.00000  2       33
siesta:      4.63094  13.34970   0.00000  2       34
siesta:      6.95932  14.69411   0.00000  2       35
siesta:      9.28770  18.72698   0.00000  2       36
siesta:      9.28770  21.41544   0.00000  2       37
siesta:     11.61608  22.75985   0.00000  2       38
siesta:     11.61608  25.44831   0.00000  2       39
siesta:     -2.35420   6.62836   0.00000  2       40
siesta:     -2.35420   9.31683   0.00000  2       41
siesta:      2.30256  14.69411   0.00000  2       42
siesta:      2.30256  17.38257   0.00000  2       43
siesta:      4.63094  21.41544   0.00000  2       44
siesta:      6.95932  22.75985   0.00000  2       45
siesta:      6.95932  25.44831   0.00000  2       46
siesta:     -4.68258  10.66124   0.00000  2       47
siesta:     -4.68258  13.34970   0.00000  2       48
siesta:     -2.35420  14.69411   0.00000  2       49
siesta:     -2.35420  17.38257   0.00000  2       50
siesta:     -0.02582  18.72698   0.00000  2       51
siesta:     -0.02582  21.41544   0.00000  2       52
siesta:      2.30256  22.75985   0.00000  2       53
siesta:      2.30256  25.44831   0.00000  2       54
siesta:     -7.01096  14.69411   0.00000  2       55
siesta:     -7.01096  17.38257   0.00000  2       56
siesta:     -4.68258  18.72698   0.00000  2       57
siesta:     -4.68258  21.41544   0.00000  2       58
siesta:     -2.35420  22.75985   0.00000  2       59
siesta:     -9.33934  18.72698   0.00000  2       60
siesta:     -9.33934  21.41544   0.00000  2       61
siesta:     -7.01096  22.75985   0.00000  2       62
siesta:     -7.01096  25.44831   0.00000  2       63
siesta:      4.63094  26.79272   0.00000  2       64
siesta:      4.63094  29.48119   0.00000  2       65
siesta:     -0.02582  26.79272   0.00000  2       66
siesta:     -0.02582  29.48119   0.00000  2       67
siesta:      2.30256  30.82560   0.00000  2       68
siesta:      2.30256  33.51406   0.00000  2       69
siesta:     -7.01096  33.51406   0.00000  2       70
siesta:     -0.02582  42.92421   0.00000  2       71
siesta:     -0.02582  45.61267   0.00000  2       72

siesta: System type = slab      

initatomlists: Number of atoms, orbitals, and projectors:     72   936  1152

siesta: ******************** Simulation parameters ****************************
siesta:
siesta: The following are some of the parameters of the simulation.
siesta: A complete list of the parameters used, including default values,
siesta: can be found in file out.fdf
siesta:
redata: Non-Collinear-spin run           =     F
redata: SpinPolarized (Up/Down) run      =     F
redata: Number of spin components        =     1
redata: Long output                      =     F
redata: Number of Atomic Species         =        2
redata: Charge density info will appear in .RHO file
redata: Write Mulliken Pop.              =     NO
redata: Mesh Cutoff                      =   200.0000  Ry
redata: Net charge of the system         =     0.0000 |e|
redata: Max. number of SCF Iter          =      500
redata: SCF convergence failure will abort job
redata: Performing Pulay mixing using    =    10 iterations
redata: Mix DM in first SCF step ?       =     F
redata: Write Pulay info on disk?        =     F
redata: Discard 1st Pulay DM after  kick =     F
redata: New DM Mixing Weight             =     0.0500
redata: New DM Occupancy tolerance       = 0.000000000001
redata: No kicks to SCF
redata: DM Mixing Weight for Kicks       =     0.5000
redata: DM Tolerance for SCF             =     0.000100
redata: Require Energy convergence for SCF =     F
redata: DM Energy tolerance for SCF      =     0.000100 eV
redata: Require Harris convergence for SCF =     F
redata: DM Harris energy tolerance for SCF =     0.000100 eV
redata: Using Saved Data (generic)   =     F
redata: Use continuation files for DM    =     T
redata: Neglect nonoverlap interactions  =     F
redata: Method of Calculation            =     Diagonalization
redata: Divide and Conquer               =     T
redata: Electronic Temperature           =     0.0019  Ry
redata: Fix the spin of the system       =     F
redata: Dynamics option                  =     Verlet MD run
redata: Initial MD time step             =        1
redata:   Final MD time step             =        1
redata: Length of MD time step           =     1.0000  fs
redata: Initial Temperature of MD run    =     0.0000  K
redata: Perform a MD quench              =     F
redata: ***********************************************************************
Total number of electrons:   304.000000
Total ionic charge:   304.000000

* ProcessorY, Blocksize:    3  24

k-point displ. along   1 input, could be:     0.50    0.00
k-point displ. along   2 input, could be:     0.50    0.00
 Kpoints in:          231 . Kpoints trimmed:          231

siesta: k-grid: Number of k-points =   231
siesta: k-grid: Cutoff (effective) =     5.000 Ang
siesta: k-grid: Supercell and displacements
siesta: k-grid:   21   0   0      0.500
siesta: k-grid:    0  21   0      0.500
siesta: k-grid:    0   0   1      0.000
Naive supercell factors:     2    2    2

superc: Internal auxiliary supercell:     2 x     2 x     2  =       8
superc: Number of atoms, orbitals, and projectors:    576   7488   9216

* Maximum dynamic memory allocated =     4 MB

siesta:                 ==============================
                            Begin MD step =      1
                        ==============================

superc: Internal auxiliary supercell:     2 x     2 x     2  =       8
superc: Number of atoms, orbitals, and projectors:    576   7488   9216

outcell: Unit cell vectors (Ang):
       12.804619    7.392750    0.000000
        0.000000   14.785500    0.000000
        0.000000    0.000000   10.000000

outcell: Cell vector modules (Ang)   :   14.785500   14.785500   10.000000
outcell: Cell angles (23,13,12) (deg):     90.0000     90.0000     60.0000
outcell: Cell volume (Ang**3)        :   1893.2269
New_DM. Step:     1
Initializing Density Matrix...

InitMesh: MESH =   120 x   120 x    90 =     1296000
InitMesh: Mesh cutoff (required, used) =   200.000   223.865 Ry

* Maximum dynamic memory allocated =   132 MB

stepf: Fermi-Dirac step function

siesta: Program's energy decomposition (eV):
siesta: Ebs     =     -6186.803463
siesta: Eions   =     20974.960578
siesta: Ena     =      4885.789206
siesta: Ekin    =      7720.939539
siesta: Enl     =       156.466682
siesta: DEna    =        -0.000015
siesta: DUscf   =         0.000000
siesta: DUext   =         0.000000
siesta: Exc     =     -4572.564081
siesta: eta*DQ  =         0.000000
siesta: Emadel  =         0.000000
siesta: Emeta   =         0.000000
siesta: Emolmec =         0.000000
siesta: Ekinion =         0.000000
siesta: Eharris =    -12411.620036
siesta: Etot    =    -12784.329246
siesta: FreeEng =    -12784.329246

siesta: iscf   Eharris(eV)      E_KS(eV)   FreeEng(eV)   dDmax  Ef(eV)
siesta:    1   -12411.6200   -12784.3292   -12784.3292  8.5660 -7.0774
timer: Routine,Calls,Time,% = IterSCF        1    2997.342  99.59
elaps: Routine,Calls,Wall,% = IterSCF        1     250.373  99.59
siesta:    2   -15697.6003   -11884.6707   -11884.6763 19.5736 -2.0046
siesta:    3   -12323.2855   -12551.5463   -12551.5832  2.5508 -4.8476
siesta:    4   -12293.6720   -12425.7588   -12425.7625  1.0409 -4.2632
siesta:    5   -12277.0269   -12369.0197   -12369.0581  0.9593 -3.8848
siesta:    6   -12270.0116   -12356.8251   -12356.8339  0.7494 -3.9175
siesta:    7   -12266.4981   -12337.5465   -12337.5991  0.6633 -3.9269
siesta:    8   -12263.4241   -12317.8143   -12317.8765  0.5560 -4.0109
siesta:    9   -12262.5144   -12287.7416   -12287.7765  0.4597 -4.0314
siesta:   10   -12262.9598   -12273.1884   -12273.2468  0.3808 -3.9899
siesta:   11   -12262.2897   -12268.8981   -12268.9342  0.5682 -3.9331
siesta:   12   -12261.7846   -12258.3569   -12258.3974  0.3110 -3.9362
siesta:   13   -12261.6156   -12251.0957   -12251.1013  0.1673 -3.9218
siesta:   14   -12261.3964   -12251.5437   -12251.5793  0.1380 -3.9615
siesta:   15   -12261.1711   -12255.3910   -12255.4486  0.2237 -4.0123
siesta:   16   -12261.0425   -12255.4117   -12255.4255  0.1941 -4.0420
siesta:   17   -12260.9578   -12255.5665   -12255.5936  0.0751 -4.0279
siesta:   18   -12260.9172   -12256.0241   -12256.0690  0.0648 -4.0350
siesta:   19   -12260.9055   -12258.0372   -12258.0860  0.0940 -4.0285
siesta:   20   -12260.8773   -12259.5834   -12259.6244  0.0400 -4.0233
siesta:   21   -12260.8715   -12260.5287   -12260.5868  0.0679 -4.0291
siesta:   22   -12260.8703   -12261.4722   -12261.5349  0.1047 -4.0311
siesta:   23   -12260.8676   -12260.9869   -12261.0527  0.0497 -4.0320
siesta:   24   -12260.8703   -12261.1842   -12261.2474  0.0161 -4.0285
siesta:   25   -12260.8674   -12261.6576   -12261.7156  0.0125 -4.0264
siesta:   26   -12260.8686   -12261.3298   -12261.3905  0.0084 -4.0238
siesta:   27   -12260.8671   -12261.3518   -12261.4110  0.0056 -4.0232
siesta:   28   -12260.8678   -12261.1588   -12261.2193  0.0074 -4.0247
siesta:   29   -12260.8669   -12261.0865   -12261.1463  0.0045 -4.0250
siesta:   30   -12260.8673   -12260.9846   -12261.0451  0.0012 -4.0251
siesta:   31   -12260.8674   -12260.9689   -12261.0290  0.0010 -4.0253
siesta:   32   -12260.8673   -12260.9312   -12260.9912  0.0010 -4.0255
siesta:   33   -12260.8674   -12260.8880   -12260.9481  0.0008 -4.0256
siesta:   34   -12260.8673   -12260.8931   -12260.9530  0.0009 -4.0255
siesta:   35   -12260.8674   -12260.8815   -12260.9416  0.0002 -4.0256
siesta:   36   -12260.8673   -12260.8716   -12260.9317  0.0004 -4.0255
siesta:   37   -12260.8673   -12260.8662   -12260.9263  0.0001 -4.0255

siesta: E_KS(eV) =           -12260.8649

siesta: E_KS - E_eggbox =    -12260.8649

siesta: Atomic forces (eV/Ang):
----------------------------------------
   Tot   -0.411502   -0.024949    0.000000
----------------------------------------
   Max  756.143340
   Res  173.309835    sqrt( Sum f_i^2 / 3N )
----------------------------------------
   Max  756.143340    constrained

Stress-tensor-Voigt (kbar):     -646.67    -3084.22       -0.06       17.35        0.00        0.00
(Free)E + p*V (eV/cell)   -10791.3720
Target enthalpy (eV/cell)   -12260.9250

siesta: Stress tensor (static) (eV/Ang**3):
        -0.403613    0.010827    0.000000
         0.010827   -1.924999    0.000000
         0.000000    0.000000   -0.000036

siesta: Pressure (static):       1243.64854068  kBar

siesta: Stress tensor (total) (eV/Ang**3):
        -0.403613    0.010827    0.000000
         0.010827   -1.924999    0.000000
         0.000000    0.000000   -0.000036

siesta: Pressure (total):       1243.64854068  kBar

siesta: Temp_ion =       0.000 K

* Maximum dynamic memory allocated =   144 MB
Computing bands...

siesta: Program's energy decomposition (eV):
siesta: Ebs     =     -4941.282417
siesta: Eions   =     20974.960578
siesta: Ena     =      4885.789206
siesta: Ekin    =     10784.096256
siesta: Enl     =     -1532.278141
siesta: DEna    =      -784.590470
siesta: DUscf   =       106.114818
siesta: DUext   =         0.000000
siesta: Exc     =     -4745.036013
siesta: eta*DQ  =         0.000000
siesta: Emadel  =         0.000000
siesta: Emeta   =         0.000000
siesta: Emolmec =         0.000000
siesta: Ekinion =         0.000000
siesta: Eharris =    -12260.867339
siesta: Etot    =    -12260.864922
siesta: FreeEng =    -12260.924969

siesta: Final energy (eV):
siesta:  Band Struct. =   -4941.282417
siesta:       Kinetic =   10784.096256
siesta:       Hartree =   34976.329904
siesta:    Ext. field =       0.000000
siesta:   Exch.-corr. =   -4745.036013
siesta:  Ion-electron =  -80283.731249
siesta:       Ion-ion =   27007.476179
siesta:       Ekinion =       0.000000
siesta:         Total =  -12260.864922

siesta: Atomic forces (eV/Ang):
siesta:      1    2.757924   -0.562744    0.000000
siesta:      2   -0.467815  756.143340    0.000000
siesta:      3    0.058677 -109.918728    0.000000
siesta:      4   -2.888080    3.970553    0.000000
siesta:      5   -0.216656   -0.216323    0.000000
siesta:      6    1.630459    3.374462    0.000000
siesta:      7    0.150087   -2.631117    0.000000
siesta:      8    3.041629    0.725858    0.000000
siesta:      9   -1.132319   -0.794960    0.000000
siesta:     10   -1.188117   -1.337739    0.000000
siesta:     11   -0.802714   -4.777429    0.000000
siesta:     12  -27.750613    6.000713    0.000000
siesta:     13   -7.376100 -673.915529    0.000000
siesta:     14   -0.655061    1.857270    0.000000
siesta:     15    2.262475  107.463235    0.000000
siesta:     16    0.645567 -755.409298    0.000000
siesta:     17  -16.604447  550.391524    0.000000
siesta:     18    1.545823 -121.284305    0.000000
siesta:     19    1.900138  125.648959    0.000000
siesta:     20    3.661107 -547.459988    0.000000
siesta:     21   -1.417017  124.919403    0.000000
siesta:     22   -1.913596 -547.630225    0.000000
siesta:     23   26.621094    5.434073    0.000000
siesta:     24   31.474672 -552.003397    0.000000
siesta:     25    2.073518    0.303505    0.000000
siesta:     26   -3.057423    2.129782    0.000000
siesta:     27    2.159631    1.764878    0.000000
siesta:     28   -1.138564    0.252087    0.000000
siesta:     29  -26.216591   10.062409    0.000000
siesta:     30  -31.861222 -553.096299    0.000000
siesta:     31   -7.434144  547.738917    0.000000
siesta:     32   -1.588939 -124.404200    0.000000
siesta:     33   33.455870  552.918536    0.000000
siesta:     34   26.175866   -6.045998    0.000000
siesta:     35   -1.991226    0.730504    0.000000
siesta:     36   -1.511177   -2.299712    0.000000
siesta:     37    0.819905   -1.586480    0.000000
siesta:     38   -0.288140    7.010622    0.000000
siesta:     39   -0.270993   -7.316213    0.000000
siesta:     40  -12.914820  658.836925    0.000000
siesta:     41   -0.797156 -118.988627    0.000000
siesta:     42   25.135391  564.225407    0.000000
siesta:     43   24.292663   -6.280546    0.000000
siesta:     44   -0.149733   -0.590547    0.000000
siesta:     45    0.156323    0.645424    0.000000
siesta:     46   -0.464649   -0.863793    0.000000
siesta:     47  -31.711237  552.644347    0.000000
siesta:     48  -27.006676   -6.013897    0.000000
siesta:     49  -27.213093  563.743661    0.000000
siesta:     50  -23.824424   -5.838917    0.000000
siesta:     51   -0.999674  562.822555    0.000000
siesta:     52   -0.890654    1.228235    0.000000
siesta:     53    1.201928   -0.675273    0.000000
siesta:     54   -0.489001   -0.248637    0.000000
siesta:     55    2.732905   -1.884215    0.000000
siesta:     56   -1.648098    0.204965    0.000000
siesta:     57    1.510147    2.919408    0.000000
siesta:     58   -0.684528    0.128720    0.000000
siesta:     59    0.188444    0.519084    0.000000
siesta:     60    0.128287    0.252259    0.000000
siesta:     61   -2.387787    0.311279    0.000000
siesta:     62    0.652803    1.196601    0.000000
siesta:     63   -0.297676   -0.196413    0.000000
siesta:     64    0.258182    0.392929    0.000000
siesta:     65   -1.499271   -2.634113    0.000000
siesta:     66   -0.061324   -0.762255    0.000000
siesta:     67   19.349905 -575.921334    0.000000
siesta:     68   24.891188    4.232432    0.000000
siesta:     69   26.983328 -565.293254    0.000000
siesta:     70    0.894902   -3.024364    0.000000
siesta:     71    0.634427  126.598422    0.000000
siesta:     72    0.953989 -547.861365    0.000000
siesta: ----------------------------------------
siesta:    Tot   -0.411502   -0.024949    0.000000

siesta: Stress tensor (static) (eV/Ang**3):
siesta:    -0.403613    0.010827    0.000000
siesta:     0.010827   -1.924999    0.000000
siesta:     0.000000    0.000000   -0.000036

siesta: Cell volume =       1893.226884 Ang**3

siesta: Pressure (static):
siesta:                Solid            Molecule  Units
siesta:           0.00845398          0.13644802  Ry/Bohr**3
siesta:           0.77621598         12.52819296  eV/Ang**3
siesta:        1243.64854068      20072.59498951  kBar
(Free)E+ p_basis*V_orbitals  =      -12232.474768
(Free)Eharris+ p_basis*V_orbitals  =      -12232.475860

siesta: Electric dipole (a.u.)  =    0.000000    0.000000    0.000000
siesta: Electric dipole (Debye) =    0.000000    0.000000    0.000000

* Maximum dynamic memory allocated : Node    0 =   142 MB
* Maximum dynamic memory allocated : Node    1 =    57 MB
* Maximum dynamic memory allocated : Node    2 =    58 MB
* Maximum dynamic memory allocated : Node    3 =   130 MB
* Maximum dynamic memory allocated : Node    4 =   144 MB
* Maximum dynamic memory allocated : Node    5 =    53 MB
* Maximum dynamic memory allocated : Node    6 =    55 MB
* Maximum dynamic memory allocated : Node    7 =   136 MB
* Maximum dynamic memory allocated : Node    8 =   131 MB
* Maximum dynamic memory allocated : Node    9 =    53 MB
* Maximum dynamic memory allocated : Node   10 =    55 MB
* Maximum dynamic memory allocated : Node   11 =   126 MB

* Maximum memory occured during matrixMtoO                    

timer: CPU execution times:
timer:  Routine       Calls   Time/call    Tot.time        %
timer:  siesta            1  108570.551  108570.551   100.00
timer:  Setup             1       3.353       3.353     0.00
timer:  bands             3     226.013     678.039     0.62
timer:  writewave         1       0.024       0.024     0.00
timer:  KSV_init          1       0.006       0.006     0.00
timer:  IterMD            1  107882.360  107882.360    99.37
timer:  hsparse           1       0.163       0.163     0.00
timer:  overlap           1       7.371       7.371     0.01
timer:  IterSCF          37    2912.434  107760.073    99.25
timer:  kinefsm           2       3.732       7.464     0.01
timer:  nlefsm            2      18.573      37.145     0.03
timer:  DHSCF            38      60.408    2295.517     2.11
timer:  DHSCF1            1       0.901       0.901     0.00
timer:  DHSCF2            1      24.359      24.359     0.02
timer:  REORD           306       0.002       0.751     0.00
timer:  POISON           39       0.452      17.632     0.02
timer:  DHSCF3           38      59.191    2249.257     2.07
timer:  rhoofd           38      12.204     463.748     0.43
timer:  cellXC           38       2.452      93.188     0.09
timer:  vmat             38      27.759    1054.856     0.97
timer:  MolMec            2       0.000       0.000     0.00
timer:  diagon           37    2850.855  105481.630    97.15
timer:  c-eigval       8668       5.589   48445.620    44.62
timer:  c-buildHS      8668       0.033     285.121     0.26
timer:  cdiag         17215       5.686   97889.022    90.16
timer:  cdiag1        17215       0.260    4474.515     4.12
timer:  cdiag2        17215       1.834   31580.906    29.09
timer:  cdiag3        17215       3.389   58340.316    53.73
timer:  cdiag4        17215       0.088    1513.085     1.39
timer:  c-eigvec       8547       5.846   49963.024    46.02
timer:  c-buildD       8547       0.901    7705.039     7.10
timer:  DHSCF4            1      20.746      20.746     0.02
timer:  dfscf             1      19.332      19.332     0.02
timer:  overfsm           1       0.285       0.285     0.00
timer:  optical           1       6.205       6.205     0.01
  

elaps: ELAPSED times:
elaps:  Routine       Calls   Time/call    Tot.time        %
elaps:  siesta            1    9068.806    9068.806   100.00
elaps:  Setup             1       0.281       0.281     0.00
elaps:  bands             3      18.894      56.681     0.63
elaps:  writewave         1       0.002       0.002     0.00
elaps:  KSV_init          1       0.000       0.000     0.00
elaps:  IterMD            1    9011.322    9011.322    99.37
elaps:  hsparse           1       0.017       0.017     0.00
elaps:  overlap           1       0.709       0.709     0.01
elaps:  IterSCF          37     243.273    9001.108    99.25
elaps:  kinefsm           2       0.362       0.724     0.01
elaps:  nlefsm            2       1.568       3.135     0.03
elaps:  DHSCF            38       5.087     193.312     2.13
elaps:  DHSCF1            1       0.077       0.077     0.00
elaps:  DHSCF2            1       2.033       2.033     0.02
elaps:  REORD           306       0.000       0.094     0.00
elaps:  POISON           39       0.038       1.494     0.02
elaps:  DHSCF3           38       4.945     187.911     2.07
elaps:  rhoofd           38       2.063      78.387     0.86
elaps:  cellXC           38       0.204       7.769     0.09
elaps:  vmat             38       2.319      88.138     0.97
elaps:  MolMec            2       0.000       0.000     0.00
elaps:  diagon           37     238.134    8810.956    97.16
elaps:  c-eigval       8668       0.467    4046.590    44.62
elaps:  c-buildHS      8668       0.003      29.521     0.33
elaps:  cdiag         17215       0.471    8114.803    89.48
elaps:  cdiag1        17215       0.021     367.264     4.05
elaps:  cdiag2        17215       0.153    2640.283    29.11
elaps:  cdiag3        17215       0.284    4880.543    53.82
elaps:  cdiag4        17215       0.007     121.151     1.34
elaps:  c-eigvec       8547       0.482    4122.688    45.46
elaps:  c-buildD       8547       0.081     694.026     7.65
elaps:  DHSCF4            1       3.253       3.253     0.04
elaps:  dfscf             1       3.069       3.069     0.03
elaps:  overfsm           1       0.029       0.029     0.00
elaps:  optical           1       0.000       0.000     0.00
  
>> End of run:   6-MAY-2016   0:02:11
