Siesta Version:                                        siesta-3.2-pl-3
Architecture  : x86_64-unknown-linux-gnu--unknown
Compiler flags: mpiifort -g -O2 -fPIC -xSSE4.1 -fp-model source -shared-intel 
PARALLEL version

* Running on   12 nodes in parallel
>> Start of run:   6-APR-2016  14:49:55

                           ***********************       
                           *  WELCOME TO SIESTA  *       
                           ***********************       

reinit: Reading from standard input
************************** Dump of input data file ****************************
#(1) General system descriptors
SystemName            GRP_doping    # Descriptive name of the system
SystemLabel           GRP_doping    # Short name for naming files
%include STRUCT.fdf
%include KPT.fdf
%include BASIS.fdf
#%include TS.fdf # for transiesta calculation
#(4) DFT, Grid, SCF
XC.functional         GGA           # LDA or GGA (default = LDA)
XC.authors            PBE           # CA (Ceperley-Aldr) = PZ
                                    #    (Perdew-Zunger) - LDA - Default
                                    # PW92 (Perdew-Wang-92) - LDA
                                    # PBE (Perdew-Burke-Ernzerhof) - GGA
MeshCutoff            200.000000    Ry      # Default: 50.0 Ry ~ 0.444 Bohr
                                    #         100.0 Ry ~ 0.314 Bohr
MaxSCFIterations      500           # Default: 50
DM.MixingWeight       0.05          # Default: 0.25
DM.NumberPulay        10            # Default: 0
DM.PulayOnFile        F             # SystemLabel.P1, SystemLabel.P2
DM.Tolerance          1.d-4         # Default: 1.d-4
DM.UseSaveDM          .true.        # because of the bug
SCFMustConverge       .true.
NeglNonOverlapInt     F             # Default: F
Diag.ParallelOverK    .true.
#(5) Eigenvalue problem: order-N or diagonalization
SolutionMethod        Diagon        # or Transiesta
ElectronicTemperature 300.0 K       # Default: 300.0 K
#(6) Molecular dynamics and relaxations
#MD.TypeOfRun          CG            # Type of dynamics:
#MD.VariableCell       F
#MD.NumCGsteps         0           # 0 for single-point / 100 for gopt
#MD.MaxCGDispl         0.2 Bohr      # Default: 0.2 Bohr
#MD.MaxForceTol        0.02 eV/Ang   # Default: 0.04 eV/Ang
#MD.MaxStressTol       1.0 GPa       # Default: 1.0 GPa
************************** End of input data file *****************************

reinit: -----------------------------------------------------------------------
reinit: System Name: GRP_doping
reinit: -----------------------------------------------------------------------
reinit: System Label: GRP_doping                                                  
reinit: -----------------------------------------------------------------------

initatom: Reading input for the pseudopotentials and atomic orbitals ----------
 Species number:            1  Label: N Atomic number:           7
 Species number:            2  Label: C Atomic number:           6
Ground state valence configuration:   2s02  2p03
Reading pseudopotential information in formatted form from N.psf

Valence configuration for pseudopotential generation:
2s( 2.00) rc: 1.48
2p( 3.00) rc: 1.48
3d( 0.00) rc: 1.48
4f( 0.00) rc: 1.48
Ground state valence configuration:   2s02  2p02
Reading pseudopotential information in formatted form from C.psf

Valence configuration for pseudopotential generation:
2s( 2.00) rc: 1.54
2p( 2.00) rc: 1.54
3d( 0.00) rc: 1.54
4f( 0.00) rc: 1.54
For N, standard SIESTA heuristics set lmxkb to 3
 (one more than the basis l, including polarization orbitals).
Use PS.lmax or PS.KBprojectors blocks to override.
For C, standard SIESTA heuristics set lmxkb to 3
 (one more than the basis l, including polarization orbitals).
Use PS.lmax or PS.KBprojectors blocks to override.

<basis_specs>
===============================================================================
N                    Z=   7    Mass=  14.010        Charge= 0.17977+309
Lmxo=1 Lmxkb= 3    BasisType=split      Semic=F
L=0  Nsemic=0  Cnfigmx=2
          n=1  nzeta=2  polorb=0
            splnorm:   0.15000    
               vcte:    0.0000    
               rinn:    0.0000    
                rcs:    0.0000      0.0000    
            lambdas:    1.0000      1.0000    
L=1  Nsemic=0  Cnfigmx=2
          n=1  nzeta=2  polorb=1
            splnorm:   0.15000    
               vcte:    0.0000    
               rinn:    0.0000    
                rcs:    0.0000      0.0000    
            lambdas:    1.0000      1.0000    
-------------------------------------------------------------------------------
L=0  Nkbl=1  erefs: 0.17977+309
L=1  Nkbl=1  erefs: 0.17977+309
L=2  Nkbl=1  erefs: 0.17977+309
L=3  Nkbl=1  erefs: 0.17977+309
===============================================================================
</basis_specs>

atom: Called for N                     (Z =   7)

read_vps: Pseudopotential generation method:
read_vps: ATM3      Troullier-Martins                       
Total valence charge:    5.00000

read_vps: Pseudopotential includes a core correction:
read_vps: Pseudo-core for xc-correction

xc_check: Exchange-correlation functional:
xc_check: GGA Perdew, Burke & Ernzerhof 1996
V l=0 = -2*Zval/r beyond r=  1.4606
V l=1 = -2*Zval/r beyond r=  1.4606
V l=2 = -2*Zval/r beyond r=  1.4606
V l=3 = -2*Zval/r beyond r=  1.4606
All V_l potentials equal beyond r=  1.4606
This should be close to max(r_c) in ps generation
All pots = -2*Zval/r beyond r=  1.4606

VLOCAL1: 99.0% of the norm of Vloc inside     20.347 Ry
VLOCAL1: 99.9% of the norm of Vloc inside     46.372 Ry
atom: Maximum radius for 4*pi*r*r*local-pseudopot. charge    1.76189
atom: Maximum radius for r*vlocal+2*Zval:    1.53550
GHOST: No ghost state for L =  0
GHOST: No ghost state for L =  1
GHOST: No ghost state for L =  2
GHOST: No ghost state for L =  3

KBgen: Kleinman-Bylander projectors: 
   l= 0   rc=  1.634559   el= -1.363963   Ekb=  5.296955   kbcos=  0.335621
   l= 1   rc=  1.614250   el= -0.521451   Ekb= -5.259161   kbcos= -0.433408
   l= 2   rc=  1.718383   el=  0.001991   Ekb= -1.271464   kbcos= -0.007566
   l= 3   rc=  1.761893   el=  0.003093   Ekb= -0.494769   kbcos= -0.001015

KBgen: Total number of  Kleinman-Bylander projectors:   16
atom: -------------------------------------------------------------------------

atom: SANKEY-TYPE ORBITALS:
atom: Selected multiple-zeta basis: split     

SPLIT: Orbitals with angular momentum L= 0

SPLIT: Basis orbitals for state 2s

SPLIT: PAO cut-off radius determined from an
SPLIT: energy shift=  0.007350 Ry

   izeta = 1
                 lambda =    1.000000
                     rc =    4.071465
                 energy =   -1.356470
                kinetic =    1.176977
    potential(screened) =   -2.533447
       potential(ionic) =   -8.057990

   izeta = 2
                 rmatch =    2.905100
              splitnorm =    0.150000
                 energy =   -1.158343
                kinetic =    1.813009
    potential(screened) =   -2.971352
       potential(ionic) =   -8.901931

SPLIT: Orbitals with angular momentum L= 1

SPLIT: Basis orbitals for state 2p

SPLIT: PAO cut-off radius determined from an
SPLIT: energy shift=  0.007350 Ry

   izeta = 1
                 lambda =    1.000000
                     rc =    4.972977
                 energy =   -0.513884
                kinetic =    3.441732
    potential(screened) =   -3.955616
       potential(ionic) =   -9.287901

   izeta = 2
                 rmatch =    3.054066
              splitnorm =    0.150000
                 energy =   -0.318226
                kinetic =    5.125348
    potential(screened) =   -5.443573
       potential(ionic) =  -11.380999

POLgen: Perturbative polarization orbital with L=  2

POLgen: Polarization orbital for state 2p

   izeta = 1
                     rc =    4.972977
                 energy =    1.607437
                kinetic =    3.268125
    potential(screened) =   -1.660688
       potential(ionic) =   -5.973652
atom: Total number of Sankey-type orbitals: 13

atm_pop: Valence configuration (for local Pseudopot. screening):
 2s( 2.00)                                                            
 2p( 3.00)                                                            
Vna: chval, zval:    5.00000   5.00000

Vna:  Cut-off radius for the neutral-atom potential:   4.972977
comcore: Pseudo-core radius Rcore=  1.554824

atom: _________________________________________________________________________

<basis_specs>
===============================================================================
C                    Z=   6    Mass=  12.010        Charge= 0.17977+309
Lmxo=1 Lmxkb= 3    BasisType=split      Semic=F
L=0  Nsemic=0  Cnfigmx=2
          n=1  nzeta=2  polorb=0
            splnorm:   0.15000    
               vcte:    0.0000    
               rinn:    0.0000    
                rcs:    0.0000      0.0000    
            lambdas:    1.0000      1.0000    
L=1  Nsemic=0  Cnfigmx=2
          n=1  nzeta=2  polorb=1
            splnorm:   0.15000    
               vcte:    0.0000    
               rinn:    0.0000    
                rcs:    0.0000      0.0000    
            lambdas:    1.0000      1.0000    
-------------------------------------------------------------------------------
L=0  Nkbl=1  erefs: 0.17977+309
L=1  Nkbl=1  erefs: 0.17977+309
L=2  Nkbl=1  erefs: 0.17977+309
L=3  Nkbl=1  erefs: 0.17977+309
===============================================================================
</basis_specs>

atom: Called for C                     (Z =   6)

read_vps: Pseudopotential generation method:
read_vps: ATM3      Troullier-Martins                       
Total valence charge:    4.00000

read_vps: Pseudopotential includes a core correction:
read_vps: Pseudo-core for xc-correction

xc_check: Exchange-correlation functional:
xc_check: GGA Perdew, Burke & Ernzerhof 1996
V l=0 = -2*Zval/r beyond r=  1.5227
V l=1 = -2*Zval/r beyond r=  1.5227
V l=2 = -2*Zval/r beyond r=  1.5227
V l=3 = -2*Zval/r beyond r=  1.5038
All V_l potentials equal beyond r=  1.5227
This should be close to max(r_c) in ps generation
All pots = -2*Zval/r beyond r=  1.5227

VLOCAL1: 99.0% of the norm of Vloc inside     18.722 Ry
VLOCAL1: 99.9% of the norm of Vloc inside     42.668 Ry
atom: Maximum radius for 4*pi*r*r*local-pseudopot. charge    1.83678
atom: Maximum radius for r*vlocal+2*Zval:    1.58088
GHOST: No ghost state for L =  0
GHOST: No ghost state for L =  1
GHOST: No ghost state for L =  2
GHOST: No ghost state for L =  3

KBgen: Kleinman-Bylander projectors: 
   l= 0   rc=  1.704034   el= -1.009801   Ekb=  5.335044   kbcos=  0.316824
   l= 1   rc=  1.704034   el= -0.388707   Ekb= -3.785862   kbcos= -0.366464
   l= 2   rc=  1.791422   el=  0.001971   Ekb= -0.970471   kbcos= -0.009212
   l= 3   rc=  1.859892   el=  0.003065   Ekb= -0.399525   kbcos= -0.001223

KBgen: Total number of  Kleinman-Bylander projectors:   16
atom: -------------------------------------------------------------------------

atom: SANKEY-TYPE ORBITALS:
atom: Selected multiple-zeta basis: split     

SPLIT: Orbitals with angular momentum L= 0

SPLIT: Basis orbitals for state 2s

SPLIT: PAO cut-off radius determined from an
SPLIT: energy shift=  0.007350 Ry

   izeta = 1
                 lambda =    1.000000
                     rc =    4.632753
                 energy =   -1.002270
                kinetic =    0.855760
    potential(screened) =   -1.858031
       potential(ionic) =   -5.417575

   izeta = 2
                 rmatch =    3.431921
              splitnorm =    0.150000
                 energy =   -0.867111
                kinetic =    1.300804
    potential(screened) =   -2.167915
       potential(ionic) =   -5.962684

SPLIT: Orbitals with angular momentum L= 1

SPLIT: Basis orbitals for state 2p

SPLIT: PAO cut-off radius determined from an
SPLIT: energy shift=  0.007350 Ry

   izeta = 1
                 lambda =    1.000000
                     rc =    5.658549
                 energy =   -0.381140
                kinetic =    2.399701
    potential(screened) =   -2.780841
       potential(ionic) =   -6.206085

   izeta = 2
                 rmatch =    3.653288
              splitnorm =    0.150000
                 energy =   -0.249149
                kinetic =    3.542762
    potential(screened) =   -3.791911
       potential(ionic) =   -7.581078

POLgen: Perturbative polarization orbital with L=  2

POLgen: Polarization orbital for state 2p

   izeta = 1
                     rc =    5.658549
                 energy =    1.109913
                kinetic =    2.304789
    potential(screened) =   -1.194876
       potential(ionic) =   -4.013592
atom: Total number of Sankey-type orbitals: 13

atm_pop: Valence configuration (for local Pseudopot. screening):
 2s( 2.00)                                                            
 2p( 2.00)                                                            
Vna: chval, zval:    4.00000   4.00000

Vna:  Cut-off radius for the neutral-atom potential:   5.658549
comcore: Pseudo-core radius Rcore=  1.791422

atom: _________________________________________________________________________

prinput: Basis input ----------------------------------------------------------

PAO.BasisType split     

%block ChemicalSpeciesLabel
    1    7 N                       # Species index, atomic number, species label
    2    6 C                       # Species index, atomic number, species label
%endblock ChemicalSpeciesLabel

%block PAO.Basis                 # Define Basis set
N                     2                    # Species label, number of l-shells
 n=2   0   2                         # n, l, Nzeta 
   4.071      2.905   
   1.000      1.000   
 n=2   1   2 P   1                   # n, l, Nzeta, Polarization, NzetaPol
   4.973      3.054   
   1.000      1.000   
C                     2                    # Species label, number of l-shells
 n=2   0   2                         # n, l, Nzeta 
   4.633      3.432   
   1.000      1.000   
 n=2   1   2 P   1                   # n, l, Nzeta, Polarization, NzetaPol
   5.659      3.653   
   1.000      1.000   
%endblock PAO.Basis

prinput: ----------------------------------------------------------------------

coor:   Atomic-coordinates input format  =     Cartesian coordinates
coor:                                          (in Angstroms)

siesta: Atomic coordinates (Bohr) and species
siesta:      2.23554   1.32097   0.00000  1        1
siesta:      4.56367   2.66461   0.00000  1        2
siesta:     11.54782   1.32097   0.00000  1        3
siesta:     13.87595   2.66461   0.00000  1        4
siesta:     20.86199   1.32097   0.00000  1        5
siesta:     23.19013   2.66461   0.00000  1        6
siesta:      6.89205   9.38661   0.00000  1        7
siesta:      9.22019  10.73026   0.00000  1        8
siesta:     16.20434   9.38661   0.00000  1        9
siesta:     18.53247  10.73026   0.00000  1       10
siesta:     11.54857  17.45226   0.00000  1       11
siesta:     13.87670  18.79590   0.00000  1       12
siesta:     25.51851   9.38661   0.00000  1       13
siesta:     27.84664  10.73026   0.00000  1       14
siesta:     20.86274  17.45226   0.00000  1       15
siesta:     23.19088  18.79590   0.00000  1       16
siesta:     30.17503  17.45226   0.00000  1       17
siesta:     32.50316  18.79590   0.00000  1       18
siesta:     32.50328  21.48508   0.00000  2       19
siesta:     34.83141  22.82873   0.00000  2       20
siesta:     34.83116  17.45226   0.00000  2       21
siesta:     37.15930  18.79590   0.00000  2       22
siesta:     32.50291  13.41944   0.00000  2       23
siesta:     34.83104  14.76308   0.00000  2       24
siesta:     30.17465   9.38661   0.00000  2       25
siesta:     32.50278  10.73026   0.00000  2       26
siesta:     27.84639   5.35379   0.00000  2       27
siesta:     30.17453   6.69743   0.00000  2       28
siesta:     27.84714  21.48508   0.00000  2       29
siesta:     30.17527  22.82873   0.00000  2       30
siesta:      6.89168   1.32097   0.00000  2       31
siesta:      9.21981   2.66461   0.00000  2       32
siesta:     16.20396   1.32097   0.00000  2       33
siesta:     18.53210   2.66461   0.00000  2       34
siesta:     25.51813   1.32097   0.00000  2       35
siesta:     27.84627   2.66461   0.00000  2       36
siesta:      4.56380   5.35379   0.00000  2       37
siesta:      6.89193   6.69743   0.00000  2       38
siesta:      9.21994   5.35379   0.00000  2       39
siesta:     11.54807   6.69743   0.00000  2       40
siesta:     13.87608   5.35379   0.00000  2       41
siesta:     16.20421   6.69743   0.00000  2       42
siesta:     18.53411   5.35379   0.00000  2       43
siesta:     20.86224   6.69743   0.00000  2       44
siesta:     23.19025   5.35379   0.00000  2       45
siesta:     25.51838   6.69743   0.00000  2       46
siesta:     11.54820   9.38661   0.00000  2       47
siesta:     13.87633  10.73026   0.00000  2       48
siesta:     20.86237   9.38661   0.00000  2       49
siesta:     23.19050  10.73026   0.00000  2       50
siesta:      9.22031  13.41944   0.00000  2       51
siesta:     11.54845  14.76308   0.00000  2       52
siesta:     13.87645  13.41944   0.00000  2       53
siesta:     16.20459  14.76308   0.00000  2       54
siesta:     18.53448  13.41944   0.00000  2       55
siesta:     20.86262  14.76308   0.00000  2       56
siesta:     16.20471  17.45226   0.00000  2       57
siesta:     18.53284  18.79590   0.00000  2       58
siesta:     13.87683  21.48508   0.00000  2       59
siesta:     16.20496  22.82873   0.00000  2       60
siesta:     18.53486  21.48508   0.00000  2       61
siesta:     20.86299  22.82873   0.00000  2       62
siesta:     23.19063  13.41944   0.00000  2       63
siesta:     25.51876  14.76308   0.00000  2       64
siesta:     27.84677  13.41944   0.00000  2       65
siesta:     30.17490  14.76308   0.00000  2       66
siesta:     25.51888  17.45226   0.00000  2       67
siesta:     27.84702  18.79590   0.00000  2       68
siesta:     23.19100  21.48508   0.00000  2       69
siesta:     25.51913  22.82873   0.00000  2       70
siesta:     37.16131  21.48508   0.00000  2       71
siesta:     39.48945  22.82873   0.00000  2       72

siesta: System type = slab      

initatomlists: Number of atoms, orbitals, and projectors:     72   936  1152

siesta: ******************** Simulation parameters ****************************
siesta:
siesta: The following are some of the parameters of the simulation.
siesta: A complete list of the parameters used, including default values,
siesta: can be found in file out.fdf
siesta:
redata: Non-Collinear-spin run           =     F
redata: SpinPolarized (Up/Down) run      =     F
redata: Number of spin components        =     1
redata: Long output                      =     F
redata: Number of Atomic Species         =        2
redata: Charge density info will appear in .RHO file
redata: Write Mulliken Pop.              =     NO
redata: Mesh Cutoff                      =   200.0000  Ry
redata: Net charge of the system         =     0.0000 |e|
redata: Max. number of SCF Iter          =      500
redata: SCF convergence failure will abort job
redata: Performing Pulay mixing using    =    10 iterations
redata: Mix DM in first SCF step ?       =     F
redata: Write Pulay info on disk?        =     F
redata: Discard 1st Pulay DM after  kick =     F
redata: New DM Mixing Weight             =     0.0500
redata: New DM Occupancy tolerance       = 0.000000000001
redata: No kicks to SCF
redata: DM Mixing Weight for Kicks       =     0.5000
redata: DM Tolerance for SCF             =     0.000100
redata: Require Energy convergence for SCF =     F
redata: DM Energy tolerance for SCF      =     0.000100 eV
redata: Require Harris convergence for SCF =     F
redata: DM Harris energy tolerance for SCF =     0.000100 eV
redata: Using Saved Data (generic)   =     F
redata: Use continuation files for DM    =     T
redata: Neglect nonoverlap interactions  =     F
redata: Method of Calculation            =     Diagonalization
redata: Divide and Conquer               =     T
redata: Electronic Temperature           =     0.0019  Ry
redata: Fix the spin of the system       =     F
redata: Dynamics option                  =     Verlet MD run
redata: Initial MD time step             =        1
redata:   Final MD time step             =        1
redata: Length of MD time step           =     1.0000  fs
redata: Initial Temperature of MD run    =     0.0000  K
redata: Perform a MD quench              =     F
redata: ***********************************************************************
Total number of electrons:   306.000000
Total ionic charge:   306.000000

* ProcessorY, Blocksize:    3  24

k-point displ. along   1 input, could be:     0.50    0.00
k-point displ. along   2 input, could be:     0.50    0.00
 Kpoints in:          231 . Kpoints trimmed:          231

siesta: k-grid: Number of k-points =   231
siesta: k-grid: Cutoff (effective) =     5.000 Ang
siesta: k-grid: Supercell and displacements
siesta: k-grid:   21   0   0      0.500
siesta: k-grid:    0  21   0      0.500
siesta: k-grid:    0   0   1      0.000
Naive supercell factors:     2    2    2

superc: Internal auxiliary supercell:     2 x     2 x     2  =       8
superc: Number of atoms, orbitals, and projectors:    576   7488   9216

* Maximum dynamic memory allocated =     4 MB

siesta:                 ==============================
                            Begin MD step =      1
                        ==============================

superc: Internal auxiliary supercell:     2 x     2 x     2  =       8
superc: Number of atoms, orbitals, and projectors:    576   7488   9216

outcell: Unit cell vectors (Ang):
       14.785000    0.000000    0.000000
        7.393000   12.805052    0.000000
        0.000000    0.000000   10.000000

outcell: Cell vector modules (Ang)   :   14.785000   14.786000   10.000000
outcell: Cell angles (23,13,12) (deg):     90.0000     90.0000     60.0000
outcell: Cell volume (Ang**3)        :   1893.2269
New_DM. Step:     1
Initializing Density Matrix...

iodm: Reading Density Matrix from files

InitMesh: MESH =   120 x   120 x    90 =     1296000
InitMesh: Mesh cutoff (required, used) =   200.000   223.865 Ry

* Maximum dynamic memory allocated =   130 MB

stepf: Fermi-Dirac step function

siesta: Program's energy decomposition (eV):
siesta: Ebs     =     -4428.369167
siesta: Eions   =     21296.454266
siesta: Ena     =      4152.977508
siesta: Ekin    =      9334.347395
siesta: Enl     =     -1324.543968
siesta: DEna    =      -210.767636
siesta: DUscf   =        23.100774
siesta: DUext   =         0.000000
siesta: Exc     =     -4462.502558
siesta: eta*DQ  =         0.000000
siesta: Emadel  =         0.000000
siesta: Emeta   =         0.000000
siesta: Emolmec =         0.000000
siesta: Ekinion =         0.000000
siesta: Eharris =    -13783.830180
siesta: Etot    =    -13783.842752
siesta: FreeEng =    -13783.842752

siesta: iscf   Eharris(eV)      E_KS(eV)   FreeEng(eV)   dDmax  Ef(eV)
siesta:    1   -13783.8302   -13783.8428   -13783.8428  0.0001 -3.1669
timer: Routine,Calls,Time,% = IterSCF        1    1191.446  98.91
elaps: Routine,Calls,Wall,% = IterSCF        1      99.529  98.91

siesta: E_KS(eV) =           -13783.8302

siesta: E_KS - E_eggbox =    -13783.8302

siesta: Atomic forces (eV/Ang):
----------------------------------------
   Tot    0.342381   -0.062151    0.000000
----------------------------------------
   Max    0.741411
   Res    0.328713    sqrt( Sum f_i^2 / 3N )
----------------------------------------
   Max    0.741411    constrained

Stress-tensor-Voigt (kbar):       30.85       28.04        0.24        2.63        0.00        0.00
(Free)E + p*V (eV/cell)   -13807.1420
Target enthalpy (eV/cell)   -13783.8490

siesta: Stress tensor (static) (eV/Ang**3):
         0.019258    0.001639    0.000000
         0.001639    0.017501    0.000000
         0.000000    0.000000    0.000151

siesta: Pressure (static):        -19.71230972  kBar

siesta: Stress tensor (total) (eV/Ang**3):
         0.019258    0.001639    0.000000
         0.001639    0.017501    0.000000
         0.000000    0.000000    0.000151

siesta: Pressure (total):        -19.71230972  kBar

siesta: Temp_ion =       0.000 K

* Maximum dynamic memory allocated =   221 MB

siesta: Program's energy decomposition (eV):
siesta: Ebs     =     -4428.369167
siesta: Eions   =     21296.454266
siesta: Ena     =      4152.977508
siesta: Ekin    =      9334.375680
siesta: Enl     =     -1324.551447
siesta: DEna    =      -210.769240
siesta: DUscf   =        23.094775
siesta: DUext   =         0.000000
siesta: Exc     =     -4462.503183
siesta: eta*DQ  =         0.000000
siesta: Emadel  =         0.000000
siesta: Emeta   =         0.000000
siesta: Emolmec =         0.000000
siesta: Ekinion =         0.000000
siesta: Eharris =    -13783.830180
siesta: Etot    =    -13783.830174
siesta: FreeEng =    -13783.848976

siesta: Final energy (eV):
siesta:  Band Struct. =   -4428.369167
siesta:       Kinetic =    9334.375680
siesta:       Hartree =   26535.075045
siesta:    Ext. field =       0.000000
siesta:   Exch.-corr. =   -4462.503183
siesta:  Ion-electron =  -61797.824492
siesta:       Ion-ion =   16607.046776
siesta:       Ekinion =       0.000000
siesta:         Total =  -13783.830174

siesta: Atomic forces (eV/Ang):
siesta:      1   -0.706657   -0.434675    0.000000
siesta:      2    0.707143    0.430752    0.000000
siesta:      3   -0.685385   -0.439112    0.000000
siesta:      4    0.708515    0.434859    0.000000
siesta:      5   -0.719136   -0.435788    0.000000
siesta:      6    0.705522    0.431899    0.000000
siesta:      7   -0.699736   -0.418822    0.000000
siesta:      8    0.708533    0.436906    0.000000
siesta:      9   -0.684535   -0.420157    0.000000
siesta:     10    0.741411    0.427362    0.000000
siesta:     11   -0.698859   -0.422652    0.000000
siesta:     12    0.707723    0.438555    0.000000
siesta:     13   -0.689692   -0.423142    0.000000
siesta:     14    0.709203    0.437505    0.000000
siesta:     15   -0.713114   -0.418788    0.000000
siesta:     16    0.704973    0.439413    0.000000
siesta:     17   -0.688393   -0.420048    0.000000
siesta:     18    0.708948    0.436235    0.000000
siesta:     19    0.168748    0.352137    0.000000
siesta:     20   -0.112747   -0.351399    0.000000
siesta:     21    0.393578   -0.052815    0.000000
siesta:     22   -0.371145    0.053983    0.000000
siesta:     23    0.496861    0.273698    0.000000
siesta:     24   -0.478281   -0.284498    0.000000
siesta:     25    0.395013   -0.056083    0.000000
siesta:     26   -0.381700    0.048013    0.000000
siesta:     27    0.496262    0.274532    0.000000
siesta:     28   -0.479804   -0.285201    0.000000
siesta:     29    0.496154    0.277978    0.000000
siesta:     30   -0.495543   -0.259671    0.000000
siesta:     31    0.395374   -0.072830    0.000000
siesta:     32   -0.392744    0.046758    0.000000
siesta:     33    0.400259   -0.072073    0.000000
siesta:     34   -0.359771    0.047322    0.000000
siesta:     35    0.397280   -0.072289    0.000000
siesta:     36   -0.382252    0.045974    0.000000
siesta:     37    0.150635    0.350219    0.000000
siesta:     38   -0.151552   -0.359583    0.000000
siesta:     39    0.495117    0.274555    0.000000
siesta:     40   -0.492803   -0.279040    0.000000
siesta:     41    0.170242    0.345854    0.000000
siesta:     42   -0.119747   -0.367860    0.000000
siesta:     43    0.458545    0.284783    0.000000
siesta:     44   -0.497135   -0.282353    0.000000
siesta:     45    0.163804    0.344395    0.000000
siesta:     46   -0.150445   -0.360900    0.000000
siesta:     47    0.392963   -0.054444    0.000000
siesta:     48   -0.391292    0.051747    0.000000
siesta:     49    0.370296   -0.050440    0.000000
siesta:     50   -0.396330    0.052281    0.000000
siesta:     51    0.151247    0.352207    0.000000
siesta:     52   -0.151042   -0.357329    0.000000
siesta:     53    0.499489    0.272881    0.000000
siesta:     54   -0.462637   -0.285678    0.000000
siesta:     55    0.123038    0.356515    0.000000
siesta:     56   -0.155128   -0.358923    0.000000
siesta:     57    0.395344   -0.055694    0.000000
siesta:     58   -0.359405    0.050349    0.000000
siesta:     59    0.184664    0.345188    0.000000
siesta:     60   -0.111474   -0.354457    0.000000
siesta:     61    0.457570    0.283501    0.000000
siesta:     62   -0.499802   -0.263128    0.000000
siesta:     63    0.496343    0.273365    0.000000
siesta:     64   -0.492566   -0.280768    0.000000
siesta:     65    0.163839    0.347431    0.000000
siesta:     66   -0.149562   -0.359452    0.000000
siesta:     67    0.392640   -0.052980    0.000000
siesta:     68   -0.391659    0.050758    0.000000
siesta:     69    0.163236    0.348411    0.000000
siesta:     70   -0.155219   -0.345307    0.000000
siesta:     71    0.455798    0.284077    0.000000
siesta:     72   -0.516637   -0.256167    0.000000
siesta: ----------------------------------------
siesta:    Tot    0.342381   -0.062151    0.000000

siesta: Stress tensor (static) (eV/Ang**3):
siesta:     0.019258    0.001639    0.000000
siesta:     0.001639    0.017501    0.000000
siesta:     0.000000    0.000000    0.000151

siesta: Cell volume =       1893.226895 Ang**3

siesta: Pressure (static):
siesta:                Solid            Molecule  Units
siesta:          -0.00013400         -0.00012684  Ry/Bohr**3
siesta:          -0.01230332         -0.01164617  eV/Ang**3
siesta:         -19.71230972        -18.65942345  kBar
(Free)E+ p_basis*V_orbitals  =      -13755.684703
(Free)Eharris+ p_basis*V_orbitals  =      -13755.672130

siesta: Electric dipole (a.u.)  =    0.000000    0.000000    0.000000
siesta: Electric dipole (Debye) =    0.000000    0.000000    0.000000

* Maximum dynamic memory allocated : Node    0 =   221 MB
* Maximum dynamic memory allocated : Node    1 =   140 MB
* Maximum dynamic memory allocated : Node    2 =   141 MB
* Maximum dynamic memory allocated : Node    3 =   211 MB
* Maximum dynamic memory allocated : Node    4 =   218 MB
* Maximum dynamic memory allocated : Node    5 =   136 MB
* Maximum dynamic memory allocated : Node    6 =   137 MB
* Maximum dynamic memory allocated : Node    7 =   211 MB
* Maximum dynamic memory allocated : Node    8 =   217 MB
* Maximum dynamic memory allocated : Node    9 =   136 MB
* Maximum dynamic memory allocated : Node   10 =   137 MB
* Maximum dynamic memory allocated : Node   11 =   212 MB

* Maximum memory occured during cdiag                         

timer: CPU execution times:
timer:  Routine       Calls   Time/call    Tot.time        %
timer:  siesta            1    1308.865    1308.865   100.00
timer:  Setup             1       3.430       3.430     0.26
timer:  bands             1       0.012       0.012     0.00
timer:  writewave         1       0.021       0.021     0.00
timer:  KSV_init          1       0.007       0.007     0.00
timer:  IterMD            1    1298.940    1298.940    99.24
timer:  hsparse           1       0.177       0.177     0.01
timer:  overlap           1       7.673       7.673     0.59
timer:  IterSCF           1    1191.446    1191.446    91.03
timer:  kinefsm           2       3.874       7.749     0.59
timer:  nlefsm            2      17.888      35.776     2.73
timer:  DHSCF             2      72.631     145.263    11.10
timer:  DHSCF1            1       0.903       0.903     0.07
timer:  DHSCF2            1      23.296      23.296     1.78
timer:  REORD            18       0.003       0.053     0.00
timer:  POISON            3       0.476       1.427     0.11
timer:  DHSCF3            2      50.769     101.538     7.76
timer:  rhoofd            2      10.430      20.860     1.59
timer:  cellXC            2       2.434       4.868     0.37
timer:  vmat              2      24.835      49.669     3.79
timer:  MolMec            2       0.000       0.001     0.00
timer:  diagon            1    1077.558    1077.558    82.33
timer:  cdiag            40      17.764     683.658    52.23
timer:  cdiag1           40       0.882      33.946     2.59
timer:  cdiag2           40       3.058     117.719     8.99
timer:  cdiag3           40      13.610     523.761    40.02
timer:  cdiag4           40       0.210       8.104     0.62
timer:  DHSCF4            1      19.478      19.478     1.49
timer:  dfscf             1      18.077      18.077     1.38
timer:  overfsm           1       0.260       0.260     0.02
timer:  optical           1       5.948       5.948     0.45
  

elaps: ELAPSED times:
elaps:  Routine       Calls   Time/call    Tot.time        %
elaps:  siesta            1     109.342     109.342   100.00
elaps:  Setup             1       0.286       0.286     0.26
elaps:  bands             1       0.001       0.001     0.00
elaps:  writewave         1       0.002       0.002     0.00
elaps:  KSV_init          1       0.000       0.000     0.00
elaps:  IterMD            1     108.513     108.513    99.24
elaps:  hsparse           1       0.018       0.018     0.02
elaps:  overlap           1       0.707       0.707     0.65
elaps:  IterSCF           1      99.529      99.529    91.02
elaps:  kinefsm           2       0.359       0.719     0.66
elaps:  nlefsm            2       1.601       3.201     2.93
elaps:  DHSCF             2       6.758      13.516    12.36
elaps:  DHSCF1            1       0.077       0.077     0.07
elaps:  DHSCF2            1       1.945       1.945     1.78
elaps:  REORD            18       0.000       0.005     0.00
elaps:  POISON            3       0.040       0.119     0.11
elaps:  DHSCF3            2       4.240       8.481     7.76
elaps:  rhoofd            2       1.567       3.133     2.87
elaps:  cellXC            2       0.203       0.406     0.37
elaps:  vmat              2       2.074       4.149     3.79
elaps:  MolMec            2       0.000       0.000     0.00
elaps:  diagon            1      90.016      90.016    82.32
elaps:  cdiag            40       1.442      57.667    52.74
elaps:  cdiag1           40       0.070       2.814     2.57
elaps:  cdiag2           40       0.245       9.812     8.97
elaps:  cdiag3           40       1.107      44.288    40.50
elaps:  cdiag4           40       0.019       0.743     0.68
elaps:  DHSCF4            1       3.008       3.008     2.75
elaps:  dfscf             1       2.825       2.825     2.58
elaps:  overfsm           1       0.027       0.027     0.02
elaps:  optical           1       0.000       0.000     0.00
  
>> End of run:   6-APR-2016  14:51:45
