Siesta Version:                                        siesta-3.2-pl-3
Architecture  : x86_64-unknown-linux-gnu--unknown
Compiler flags: mpiifort -g -O2 -fPIC -xSSE4.1 -fp-model source -shared-intel 
PARALLEL version

* Running on    8 nodes in parallel
>> Start of run:  19-APR-2016   1:32:10

                           ***********************       
                           *  WELCOME TO SIESTA  *       
                           ***********************       

reinit: Reading from standard input
************************** Dump of input data file ****************************
#(1) General system descriptors
SystemName            GRP_doping    # Descriptive name of the system
SystemLabel           GRP_doping    # Short name for naming files
%include STRUCT.fdf
%include KPT.fdf
%include BASIS.fdf
#%include TS.fdf # for transiesta calculation
#(4) DFT, Grid, SCF
XC.functional         GGA           # LDA or GGA (default = LDA)
XC.authors            PBE           # CA (Ceperley-Aldr) = PZ
                                    #    (Perdew-Zunger) - LDA - Default
                                    # PW92 (Perdew-Wang-92) - LDA
                                    # PBE (Perdew-Burke-Ernzerhof) - GGA
MeshCutoff            200.000000    Ry      # Default: 50.0 Ry ~ 0.444 Bohr
                                    #         100.0 Ry ~ 0.314 Bohr
MaxSCFIterations      500           # Default: 50
DM.MixingWeight       0.05          # Default: 0.25
DM.NumberPulay        10            # Default: 0
DM.PulayOnFile        F             # SystemLabel.P1, SystemLabel.P2
DM.Tolerance          1.d-4         # Default: 1.d-4
DM.UseSaveDM          .true.        # because of the bug
SCFMustConverge       .true.
NeglNonOverlapInt     F             # Default: F
#(5) Eigenvalue problem: order-N or diagonalization
SolutionMethod        Diagon        # or Transiesta
ElectronicTemperature 300.0 K       # Default: 300.0 K
#(6) Molecular dynamics and relaxations
#MD.TypeOfRun          CG            # Type of dynamics:
#MD.VariableCell       F
#MD.NumCGsteps         0           # 0 for single-point / 100 for gopt
#MD.MaxCGDispl         0.2 Bohr      # Default: 0.2 Bohr
#MD.MaxForceTol        0.02 eV/Ang   # Default: 0.04 eV/Ang
#MD.MaxStressTol       1.0 GPa       # Default: 1.0 GPa
# Geometry Constraints
#%block GeometryConstraints
#	position from 1 to 44
#%endblock GeometryConstraints
BandLinesScale   pi/a
%block BandLines
 1   0.00000000  0.00000000  0.00000000
50   0.00000000  0.07809418  0.00000000
50   0.04509075  0.07809242  0.00000000
20   0.00000000  0.00000000  0.00000000
%endblock BandLines
************************** End of input data file *****************************

reinit: -----------------------------------------------------------------------
reinit: System Name: GRP_doping
reinit: -----------------------------------------------------------------------
reinit: System Label: GRP_doping                                                  
reinit: -----------------------------------------------------------------------

initatom: Reading input for the pseudopotentials and atomic orbitals ----------
 Species number:            1  Label: B Atomic number:           5
 Species number:            2  Label: C Atomic number:           6
Ground state valence configuration:   2s02  2p01
Reading pseudopotential information in formatted form from B.psf

Valence configuration for pseudopotential generation:
2s( 2.00) rc: 1.74
2p( 1.00) rc: 1.74
3d( 0.00) rc: 1.74
4f( 0.00) rc: 1.74
Ground state valence configuration:   2s02  2p02
Reading pseudopotential information in formatted form from C.psf

Valence configuration for pseudopotential generation:
2s( 2.00) rc: 1.54
2p( 2.00) rc: 1.54
3d( 0.00) rc: 1.54
4f( 0.00) rc: 1.54
For B, standard SIESTA heuristics set lmxkb to 3
 (one more than the basis l, including polarization orbitals).
Use PS.lmax or PS.KBprojectors blocks to override.
For C, standard SIESTA heuristics set lmxkb to 3
 (one more than the basis l, including polarization orbitals).
Use PS.lmax or PS.KBprojectors blocks to override.

<basis_specs>
===============================================================================
B                    Z=   5    Mass=  10.810        Charge= 0.17977+309
Lmxo=1 Lmxkb= 3    BasisType=split      Semic=F
L=0  Nsemic=0  Cnfigmx=2
          n=1  nzeta=2  polorb=0
            splnorm:   0.15000    
               vcte:    0.0000    
               rinn:    0.0000    
                rcs:    0.0000      0.0000    
            lambdas:    1.0000      1.0000    
L=1  Nsemic=0  Cnfigmx=2
          n=1  nzeta=2  polorb=1
            splnorm:   0.15000    
               vcte:    0.0000    
               rinn:    0.0000    
                rcs:    0.0000      0.0000    
            lambdas:    1.0000      1.0000    
-------------------------------------------------------------------------------
L=0  Nkbl=1  erefs: 0.17977+309
L=1  Nkbl=1  erefs: 0.17977+309
L=2  Nkbl=1  erefs: 0.17977+309
L=3  Nkbl=1  erefs: 0.17977+309
===============================================================================
</basis_specs>

atom: Called for B                     (Z =   5)

read_vps: Pseudopotential generation method:
read_vps: ATM3      Troullier-Martins                       
Total valence charge:    3.00000

read_vps: Pseudopotential includes a core correction:
read_vps: Pseudo-core for xc-correction

xc_check: Exchange-correlation functional:
xc_check: GGA Perdew, Burke & Ernzerhof 1996
V l=0 = -2*Zval/r beyond r=  1.7165
V l=1 = -2*Zval/r beyond r=  1.7165
V l=2 = -2*Zval/r beyond r=  1.7165
V l=3 = -2*Zval/r beyond r=  1.6951
All V_l potentials equal beyond r=  1.7165
This should be close to max(r_c) in ps generation
All pots = -2*Zval/r beyond r=  1.7165

VLOCAL1: 99.0% of the norm of Vloc inside     14.733 Ry
VLOCAL1: 99.9% of the norm of Vloc inside     33.577 Ry
atom: Maximum radius for 4*pi*r*r*local-pseudopot. charge    2.04484
atom: Maximum radius for r*vlocal+2*Zval:    1.75994
GHOST: No ghost state for L =  0
GHOST: No ghost state for L =  1
GHOST: No ghost state for L =  2
GHOST: No ghost state for L =  3

KBgen: Kleinman-Bylander projectors: 
   l= 0   rc=  1.897051   el= -0.693730   Ekb=  4.595746   kbcos=  0.286105
   l= 1   rc=  1.920920   el= -0.265236   Ekb= -2.350715   kbcos= -0.315747
   l= 2   rc=  2.044840   el=  0.002055   Ekb= -0.690767   kbcos= -0.013822
   l= 3   rc=  2.149707   el=  0.003188   Ekb= -0.315358   kbcos= -0.002055

KBgen: Total number of  Kleinman-Bylander projectors:   16
atom: -------------------------------------------------------------------------

atom: SANKEY-TYPE ORBITALS:
atom: Selected multiple-zeta basis: split     

SPLIT: Orbitals with angular momentum L= 0

SPLIT: Basis orbitals for state 2s

SPLIT: PAO cut-off radius determined from an
SPLIT: energy shift=  0.007350 Ry

   izeta = 1
                 lambda =    1.000000
                     rc =    5.422032
                 energy =   -0.686029
                kinetic =    0.576707
    potential(screened) =   -1.262736
       potential(ionic) =   -3.271094

   izeta = 2
                 rmatch =    4.222573
              splitnorm =    0.150000
                 energy =   -0.602132
                kinetic =    0.858975
    potential(screened) =   -1.461107
       potential(ionic) =   -3.582536

SPLIT: Orbitals with angular momentum L= 1

SPLIT: Basis orbitals for state 2p

SPLIT: PAO cut-off radius determined from an
SPLIT: energy shift=  0.007350 Ry

   izeta = 1
                 lambda =    1.000000
                     rc =    6.790259
                 energy =   -0.258578
                kinetic =    1.481412
    potential(screened) =   -1.739989
       potential(ionic) =   -3.657461

   izeta = 2
                 rmatch =    4.608740
              splitnorm =    0.150000
                 energy =   -0.173757
                kinetic =    2.186690
    potential(screened) =   -2.360447
       potential(ionic) =   -4.464260

POLgen: Perturbative polarization orbital with L=  2

POLgen: Polarization orbital for state 2p

   izeta = 1
                     rc =    6.790259
                 energy =    0.684082
                kinetic =    1.471481
    potential(screened) =   -0.787399
       potential(ionic) =   -2.406985
atom: Total number of Sankey-type orbitals: 13

atm_pop: Valence configuration (for local Pseudopot. screening):
 2s( 2.00)                                                            
 2p( 1.00)                                                            
Vna: chval, zval:    3.00000   3.00000

Vna:  Cut-off radius for the neutral-atom potential:   6.790259
comcore: Pseudo-core radius Rcore=  2.122997

atom: _________________________________________________________________________

<basis_specs>
===============================================================================
C                    Z=   6    Mass=  12.010        Charge= 0.17977+309
Lmxo=1 Lmxkb= 3    BasisType=split      Semic=F
L=0  Nsemic=0  Cnfigmx=2
          n=1  nzeta=2  polorb=0
            splnorm:   0.15000    
               vcte:    0.0000    
               rinn:    0.0000    
                rcs:    0.0000      0.0000    
            lambdas:    1.0000      1.0000    
L=1  Nsemic=0  Cnfigmx=2
          n=1  nzeta=2  polorb=1
            splnorm:   0.15000    
               vcte:    0.0000    
               rinn:    0.0000    
                rcs:    0.0000      0.0000    
            lambdas:    1.0000      1.0000    
-------------------------------------------------------------------------------
L=0  Nkbl=1  erefs: 0.17977+309
L=1  Nkbl=1  erefs: 0.17977+309
L=2  Nkbl=1  erefs: 0.17977+309
L=3  Nkbl=1  erefs: 0.17977+309
===============================================================================
</basis_specs>

atom: Called for C                     (Z =   6)

read_vps: Pseudopotential generation method:
read_vps: ATM3      Troullier-Martins                       
Total valence charge:    4.00000

read_vps: Pseudopotential includes a core correction:
read_vps: Pseudo-core for xc-correction

xc_check: Exchange-correlation functional:
xc_check: GGA Perdew, Burke & Ernzerhof 1996
V l=0 = -2*Zval/r beyond r=  1.5227
V l=1 = -2*Zval/r beyond r=  1.5227
V l=2 = -2*Zval/r beyond r=  1.5227
V l=3 = -2*Zval/r beyond r=  1.5038
All V_l potentials equal beyond r=  1.5227
This should be close to max(r_c) in ps generation
All pots = -2*Zval/r beyond r=  1.5227

VLOCAL1: 99.0% of the norm of Vloc inside     18.722 Ry
VLOCAL1: 99.9% of the norm of Vloc inside     42.668 Ry
atom: Maximum radius for 4*pi*r*r*local-pseudopot. charge    1.83678
atom: Maximum radius for r*vlocal+2*Zval:    1.58088
GHOST: No ghost state for L =  0
GHOST: No ghost state for L =  1
GHOST: No ghost state for L =  2
GHOST: No ghost state for L =  3

KBgen: Kleinman-Bylander projectors: 
   l= 0   rc=  1.704034   el= -1.009801   Ekb=  5.335044   kbcos=  0.316824
   l= 1   rc=  1.704034   el= -0.388707   Ekb= -3.785862   kbcos= -0.366464
   l= 2   rc=  1.791422   el=  0.001971   Ekb= -0.970471   kbcos= -0.009212
   l= 3   rc=  1.859892   el=  0.003065   Ekb= -0.399525   kbcos= -0.001223

KBgen: Total number of  Kleinman-Bylander projectors:   16
atom: -------------------------------------------------------------------------

atom: SANKEY-TYPE ORBITALS:
atom: Selected multiple-zeta basis: split     

SPLIT: Orbitals with angular momentum L= 0

SPLIT: Basis orbitals for state 2s

SPLIT: PAO cut-off radius determined from an
SPLIT: energy shift=  0.007350 Ry

   izeta = 1
                 lambda =    1.000000
                     rc =    4.632753
                 energy =   -1.002270
                kinetic =    0.855760
    potential(screened) =   -1.858031
       potential(ionic) =   -5.417575

   izeta = 2
                 rmatch =    3.431921
              splitnorm =    0.150000
                 energy =   -0.867111
                kinetic =    1.300804
    potential(screened) =   -2.167915
       potential(ionic) =   -5.962684

SPLIT: Orbitals with angular momentum L= 1

SPLIT: Basis orbitals for state 2p

SPLIT: PAO cut-off radius determined from an
SPLIT: energy shift=  0.007350 Ry

   izeta = 1
                 lambda =    1.000000
                     rc =    5.658549
                 energy =   -0.381140
                kinetic =    2.399701
    potential(screened) =   -2.780841
       potential(ionic) =   -6.206085

   izeta = 2
                 rmatch =    3.653288
              splitnorm =    0.150000
                 energy =   -0.249149
                kinetic =    3.542762
    potential(screened) =   -3.791911
       potential(ionic) =   -7.581078

POLgen: Perturbative polarization orbital with L=  2

POLgen: Polarization orbital for state 2p

   izeta = 1
                     rc =    5.658549
                 energy =    1.109913
                kinetic =    2.304789
    potential(screened) =   -1.194876
       potential(ionic) =   -4.013592
atom: Total number of Sankey-type orbitals: 13

atm_pop: Valence configuration (for local Pseudopot. screening):
 2s( 2.00)                                                            
 2p( 2.00)                                                            
Vna: chval, zval:    4.00000   4.00000

Vna:  Cut-off radius for the neutral-atom potential:   5.658549
comcore: Pseudo-core radius Rcore=  1.791422

atom: _________________________________________________________________________

prinput: Basis input ----------------------------------------------------------

PAO.BasisType split     

%block ChemicalSpeciesLabel
    1    5 B                       # Species index, atomic number, species label
    2    6 C                       # Species index, atomic number, species label
%endblock ChemicalSpeciesLabel

%block PAO.Basis                 # Define Basis set
B                     2                    # Species label, number of l-shells
 n=2   0   2                         # n, l, Nzeta 
   5.422      4.223   
   1.000      1.000   
 n=2   1   2 P   1                   # n, l, Nzeta, Polarization, NzetaPol
   6.790      4.609   
   1.000      1.000   
C                     2                    # Species label, number of l-shells
 n=2   0   2                         # n, l, Nzeta 
   4.633      3.432   
   1.000      1.000   
 n=2   1   2 P   1                   # n, l, Nzeta, Polarization, NzetaPol
   5.659      3.653   
   1.000      1.000   
%endblock PAO.Basis

prinput: ----------------------------------------------------------------------

coor:   Atomic-coordinates input format  =     Fractional

siesta: Atomic coordinates (Bohr) and species
siesta:     -0.02582   2.59549   0.00000  1        1
siesta:     -0.02582   5.28395   0.00000  1        2
siesta:     -2.35420  38.89134   0.00000  1        3
siesta:     -2.35420  41.57980   0.00000  1        4
siesta:      2.30256   6.62836   0.00000  1        5
siesta:      2.30256   9.31683   0.00000  1        6
siesta:     -2.35420   6.62836   0.00000  1        7
siesta:     -2.35420   9.31683   0.00000  1        8
siesta:     -0.02582  10.66124   0.00000  1        9
siesta:     -0.02582  13.34970   0.00000  1       10
siesta:     -2.35420  14.69411   0.00000  1       11
siesta:     -2.35420  17.38257   0.00000  1       12
siesta:     -0.02582  18.72698   0.00000  1       13
siesta:     -0.02582  21.41544   0.00000  1       14
siesta:     -4.68258  18.72698   0.00000  1       15
siesta:     -4.68258  21.41544   0.00000  1       16
siesta:     -2.35420  22.75985   0.00000  1       17
siesta:     -2.35420  25.44831   0.00000  1       18
siesta:     -0.02582  26.79272   0.00000  1       19
siesta:     -0.02582  29.48119   0.00000  1       20
siesta:      2.30256  30.82560   0.00000  1       21
siesta:      2.30256  33.51406   0.00000  1       22
siesta:     -2.35420  30.82560   0.00000  1       23
siesta:     -2.35420  33.51406   0.00000  1       24
siesta:     -0.02582  34.85847   0.00000  1       25
siesta:     -0.02582  37.54693   0.00000  1       26
siesta:      2.30256  38.89134   0.00000  2       27
siesta:      2.30256  41.57980   0.00000  2       28
siesta:      4.63094  34.85847   0.00000  2       29
siesta:      4.63094  37.54693   0.00000  2       30
siesta:      6.95932  30.82560   0.00000  2       31
siesta:      6.95932  33.51406   0.00000  2       32
siesta:      9.28770  26.79272   0.00000  2       33
siesta:      9.28770  29.48119   0.00000  2       34
siesta:     -4.68258  34.85847   0.00000  2       35
siesta:     -4.68258  37.54693   0.00000  2       36
siesta:      4.63094  10.66124   0.00000  2       37
siesta:      4.63094  13.34970   0.00000  2       38
siesta:      6.95932  14.69411   0.00000  2       39
siesta:      6.95932  17.38257   0.00000  2       40
siesta:      9.28770  18.72698   0.00000  2       41
siesta:      9.28770  21.41544   0.00000  2       42
siesta:     11.61608  22.75985   0.00000  2       43
siesta:     11.61608  25.44831   0.00000  2       44
siesta:      2.30256  14.69411   0.00000  2       45
siesta:      2.30256  17.38257   0.00000  2       46
siesta:      4.63094  18.72698   0.00000  2       47
siesta:      4.63094  21.41544   0.00000  2       48
siesta:      6.95932  22.75985   0.00000  2       49
siesta:      6.95932  25.44831   0.00000  2       50
siesta:     -4.68258  10.66124   0.00000  2       51
siesta:     -4.68258  13.34970   0.00000  2       52
siesta:      2.30256  22.75985   0.00000  2       53
siesta:      2.30256  25.44831   0.00000  2       54
siesta:     -7.01096  14.69411   0.00000  2       55
siesta:     -7.01096  17.38257   0.00000  2       56
siesta:     -9.33934  18.72698   0.00000  2       57
siesta:     -9.33934  21.41544   0.00000  2       58
siesta:     -7.01096  22.75985   0.00000  2       59
siesta:     -7.01096  25.44831   0.00000  2       60
siesta:    -11.66772  22.75985   0.00000  2       61
siesta:    -11.66772  25.44831   0.00000  2       62
siesta:     -9.33934  26.79272   0.00000  2       63
siesta:     -9.33934  29.48119   0.00000  2       64
siesta:      4.63094  26.79272   0.00000  2       65
siesta:      4.63094  29.48119   0.00000  2       66
siesta:     -4.68258  26.79272   0.00000  2       67
siesta:     -4.68258  29.48119   0.00000  2       68
siesta:     -7.01096  30.82560   0.00000  2       69
siesta:     -7.01096  33.51406   0.00000  2       70
siesta:     -0.02582  42.92421   0.00000  2       71
siesta:     -0.02582  45.61267   0.00000  2       72

siesta: System type = slab      

initatomlists: Number of atoms, orbitals, and projectors:     72   936  1152

siesta: ******************** Simulation parameters ****************************
siesta:
siesta: The following are some of the parameters of the simulation.
siesta: A complete list of the parameters used, including default values,
siesta: can be found in file out.fdf
siesta:
redata: Non-Collinear-spin run           =     F
redata: SpinPolarized (Up/Down) run      =     F
redata: Number of spin components        =     1
redata: Long output                      =     F
redata: Number of Atomic Species         =        2
redata: Charge density info will appear in .RHO file
redata: Write Mulliken Pop.              =     NO
redata: Mesh Cutoff                      =   200.0000  Ry
redata: Net charge of the system         =     0.0000 |e|
redata: Max. number of SCF Iter          =      500
redata: SCF convergence failure will abort job
redata: Performing Pulay mixing using    =    10 iterations
redata: Mix DM in first SCF step ?       =     F
redata: Write Pulay info on disk?        =     F
redata: Discard 1st Pulay DM after  kick =     F
redata: New DM Mixing Weight             =     0.0500
redata: New DM Occupancy tolerance       = 0.000000000001
redata: No kicks to SCF
redata: DM Mixing Weight for Kicks       =     0.5000
redata: DM Tolerance for SCF             =     0.000100
redata: Require Energy convergence for SCF =     F
redata: DM Energy tolerance for SCF      =     0.000100 eV
redata: Require Harris convergence for SCF =     F
redata: DM Harris energy tolerance for SCF =     0.000100 eV
redata: Using Saved Data (generic)   =     F
redata: Use continuation files for DM    =     T
redata: Neglect nonoverlap interactions  =     F
redata: Method of Calculation            =     Diagonalization
redata: Divide and Conquer               =     T
redata: Electronic Temperature           =     0.0019  Ry
redata: Fix the spin of the system       =     F
redata: Dynamics option                  =     Verlet MD run
redata: Initial MD time step             =        1
redata:   Final MD time step             =        1
redata: Length of MD time step           =     1.0000  fs
redata: Initial Temperature of MD run    =     0.0000  K
redata: Perform a MD quench              =     F
redata: ***********************************************************************
Total number of electrons:   262.000000
Total ionic charge:   262.000000

* ProcessorY, Blocksize:    2  24

k-point displ. along   1 input, could be:     0.50    0.00
k-point displ. along   2 input, could be:     0.50    0.00
 Kpoints in:          231 . Kpoints trimmed:          231

siesta: k-grid: Number of k-points =   231
siesta: k-grid: Cutoff (effective) =     5.000 Ang
siesta: k-grid: Supercell and displacements
siesta: k-grid:   21   0   0      0.500
siesta: k-grid:    0  21   0      0.500
siesta: k-grid:    0   0   1      0.000
Naive supercell factors:     2    2    2

superc: Internal auxiliary supercell:     2 x     2 x     2  =       8
superc: Number of atoms, orbitals, and projectors:    576   7488   9216

* Maximum dynamic memory allocated =     4 MB

siesta:                 ==============================
                            Begin MD step =      1
                        ==============================

superc: Internal auxiliary supercell:     2 x     2 x     2  =       8
superc: Number of atoms, orbitals, and projectors:    576   7488   9216

outcell: Unit cell vectors (Ang):
       12.804619    7.392750    0.000000
        0.000000   14.785500    0.000000
        0.000000    0.000000   10.000000

outcell: Cell vector modules (Ang)   :   14.785500   14.785500   10.000000
outcell: Cell angles (23,13,12) (deg):     90.0000     90.0000     60.0000
outcell: Cell volume (Ang**3)        :   1893.2269
New_DM. Step:     1
Initializing Density Matrix...

InitMesh: MESH =   120 x   120 x    90 =     1296000
InitMesh: Mesh cutoff (required, used) =   200.000   223.865 Ry

* Maximum dynamic memory allocated =   236 MB

stepf: Fermi-Dirac step function

siesta: Program's energy decomposition (eV):
siesta: Ebs     =     -5317.092239
siesta: Eions   =     15073.536580
siesta: Ena     =      4072.673001
siesta: Ekin    =      5006.990805
siesta: Enl     =       862.949191
siesta: DEna    =        -0.000006
siesta: DUscf   =         0.000000
siesta: DUext   =         0.000000
siesta: Exc     =     -4186.276931
siesta: eta*DQ  =         0.000000
siesta: Emadel  =         0.000000
siesta: Emeta   =         0.000000
siesta: Emolmec =         0.000000
siesta: Ekinion =         0.000000
siesta: Eharris =     -9212.783687
siesta: Etot    =     -9317.200519
siesta: FreeEng =     -9317.200519

siesta: iscf   Eharris(eV)      E_KS(eV)   FreeEng(eV)   dDmax  Ef(eV)
siesta:    1    -9212.7837    -9317.2005    -9317.2005  7.4473 -8.5215
timer: Routine,Calls,Time,% = IterSCF        1    4448.912  99.71
elaps: Routine,Calls,Wall,% = IterSCF        1     556.887  99.71
siesta:    2   -17402.6823    -7927.1407    -7927.1848 16.8656-11.7160
siesta:    3    -9456.0203    -9123.3476    -9123.3793  1.6618 -5.1099
siesta:    4    -9334.5467    -9084.9616    -9084.9801  1.6376 -5.3529
siesta:    5    -9197.8907    -9044.7265    -9044.7353  1.3558 -5.2439
siesta:    6    -9146.9179    -9017.9219    -9017.9244  1.1109 -5.2492
siesta:    7    -9066.9576    -8999.4748    -8999.5220  0.9084 -5.3989
siesta:    8    -9060.9751    -8983.8098    -8983.8519  0.8742 -5.3122
siesta:    9    -9054.6059    -8981.7006    -8981.7417  0.7865 -5.3211
siesta:   10    -9057.9610    -8995.2723    -8995.2984  0.5127 -5.2495
siesta:   11    -9055.1827    -9000.4641    -9000.5228  0.4027 -5.2608
siesta:   12    -9052.7904    -9003.5796    -9003.6137  0.5011 -5.2926
siesta:   13    -9052.1193    -9015.1764    -9015.2480  0.3530 -5.2313
siesta:   14    -9051.6126    -9022.5717    -9022.5899  0.3560 -5.2547
siesta:   15    -9051.0752    -9028.8725    -9028.9096  0.3087 -5.2945
siesta:   16    -9050.9023    -9045.0212    -9045.0606  0.1958 -5.3962
siesta:   17    -9050.7698    -9045.0754    -9045.1363  0.1774 -5.3423
siesta:   18    -9050.5520    -9044.3978    -9044.4371  0.1089 -5.3240
siesta:   19    -9050.5208    -9046.4528    -9046.4874  0.0925 -5.3287
siesta:   20    -9050.4559    -9048.7735    -9048.8212  0.0862 -5.3615
siesta:   21    -9050.3978    -9050.0307    -9050.0993  0.0565 -5.3484
siesta:   22    -9050.3666    -9050.3495    -9050.3919  0.0486 -5.3546
siesta:   23    -9050.3469    -9050.3849    -9050.4277  0.0232 -5.3478
siesta:   24    -9050.3423    -9050.4352    -9050.4780  0.0216 -5.3441
siesta:   25    -9050.3313    -9050.3963    -9050.4395  0.0141 -5.3417
siesta:   26    -9050.3294    -9050.1943    -9050.2435  0.0092 -5.3417
siesta:   27    -9050.3297    -9050.1247    -9050.1748  0.0073 -5.3418
siesta:   28    -9050.3289    -9050.2930    -9050.3425  0.0054 -5.3425
siesta:   29    -9050.3309    -9050.5114    -9050.5615  0.0044 -5.3419
siesta:   30    -9050.3298    -9050.5701    -9050.6182  0.0041 -5.3426
siesta:   31    -9050.3300    -9050.6022    -9050.6513  0.0037 -5.3428
siesta:   32    -9050.3297    -9050.5907    -9050.6393  0.0040 -5.3425
siesta:   33    -9050.3299    -9050.5776    -9050.6263  0.0036 -5.3421
siesta:   34    -9050.3297    -9050.5433    -9050.5918  0.0009 -5.3420
siesta:   35    -9050.3296    -9050.5172    -9050.5658  0.0006 -5.3420
siesta:   36    -9050.3295    -9050.4783    -9050.5270  0.0005 -5.3419
siesta:   37    -9050.3295    -9050.4277    -9050.4765  0.0005 -5.3418
siesta:   38    -9050.3296    -9050.3891    -9050.4380  0.0004 -5.3417
siesta:   39    -9050.3296    -9050.3747    -9050.4235  0.0003 -5.3416
siesta:   40    -9050.3296    -9050.3527    -9050.4015  0.0002 -5.3417
siesta:   41    -9050.3295    -9050.3415    -9050.3903  0.0001 -5.3417
siesta:   42    -9050.3296    -9050.3336    -9050.3824  0.0001 -5.3417
siesta:   43    -9050.3296    -9050.3302    -9050.3789  0.0001 -5.3417

siesta: E_KS(eV) =            -9050.3300

siesta: E_KS - E_eggbox =     -9050.3300

siesta: Atomic forces (eV/Ang):
----------------------------------------
   Tot   -0.015466    0.018461    0.000000
----------------------------------------
   Max  556.927514
   Res  120.457922    sqrt( Sum f_i^2 / 3N )
----------------------------------------
   Max  556.927514    constrained

Stress-tensor-Voigt (kbar):     -611.79    -2164.98       -0.75       21.75        0.00        0.00
(Free)E + p*V (eV/cell)    -7956.3624
Target enthalpy (eV/cell)    -9050.3788

siesta: Stress tensor (static) (eV/Ang**3):
        -0.381843    0.013577    0.000000
         0.013577   -1.351261    0.000000
         0.000000    0.000000   -0.000471

siesta: Pressure (static):        925.84065157  kBar

siesta: Stress tensor (total) (eV/Ang**3):
        -0.381843    0.013577    0.000000
         0.013577   -1.351261    0.000000
         0.000000    0.000000   -0.000471

siesta: Pressure (total):        925.84065157  kBar

siesta: Temp_ion =       0.000 K

* Maximum dynamic memory allocated =   253 MB
Computing bands...

siesta: Program's energy decomposition (eV):
siesta: Ebs     =     -4007.309310
siesta: Eions   =     15073.536580
siesta: Ena     =      4072.673001
siesta: Ekin    =      7575.825620
siesta: Enl     =      -722.443762
siesta: DEna    =      -659.278436
siesta: DUscf   =        85.957928
siesta: DUext   =         0.000000
siesta: Exc     =     -4329.527769
siesta: eta*DQ  =         0.000000
siesta: Emadel  =         0.000000
siesta: Emeta   =         0.000000
siesta: Emolmec =         0.000000
siesta: Ekinion =         0.000000
siesta: Eharris =     -9050.329552
siesta: Etot    =     -9050.329998
siesta: FreeEng =     -9050.378781

siesta: Final energy (eV):
siesta:  Band Struct. =   -4007.309310
siesta:       Kinetic =    7575.825620
siesta:       Hartree =   23446.917620
siesta:    Ext. field =       0.000000
siesta:   Exch.-corr. =   -4329.527769
siesta:  Ion-electron =  -54232.398852
siesta:       Ion-ion =   18488.853384
siesta:       Ekinion =       0.000000
siesta:         Total =   -9050.329998

siesta: Atomic forces (eV/Ang):
siesta:      1   -0.383875  286.987867    0.000000
siesta:      2    0.408035  -96.730265    0.000000
siesta:      3   -1.396577   98.614285    0.000000
siesta:      4   -4.874003 -296.817022    0.000000
siesta:      5    3.995366  293.477108    0.000000
siesta:      6    6.960914 -108.236938    0.000000
siesta:      7   -3.841031  297.293636    0.000000
siesta:      8   -1.579259  -99.360903    0.000000
siesta:      9   -2.705527  294.039894    0.000000
siesta:     10    6.999631 -109.318693    0.000000
siesta:     11  -21.034027  299.440500    0.000000
siesta:     12  -15.139350    0.623207    0.000000
siesta:     13    0.011962  409.526997    0.000000
siesta:     14    2.955520    1.514301    0.000000
siesta:     15   -1.087518   -3.508329    0.000000
siesta:     16   -4.792352    4.671860    0.000000
siesta:     17    3.035425   -2.607714    0.000000
siesta:     18   -6.171453    3.732936    0.000000
siesta:     19    4.239906   -4.739182    0.000000
siesta:     20   -0.584531 -298.297913    0.000000
siesta:     21   17.609278    0.002506    0.000000
siesta:     22   18.800357 -296.412870    0.000000
siesta:     23  -17.335358    0.377189    0.000000
siesta:     24  -18.552692 -298.822328    0.000000
siesta:     25   -0.693345  100.965870    0.000000
siesta:     26   -0.373622 -294.560979    0.000000
siesta:     27  -14.172567  123.253414    0.000000
siesta:     28   20.232890 -556.927514    0.000000
siesta:     29   21.790002    0.843492    0.000000
siesta:     30   30.409593 -552.667067    0.000000
siesta:     31    2.697330    0.470832    0.000000
siesta:     32   -1.158638    2.292172    0.000000
siesta:     33    2.520656    1.849417    0.000000
siesta:     34   -1.080284    0.551298    0.000000
siesta:     35  -21.519043    0.541339    0.000000
siesta:     36  -21.341235 -549.946329    0.000000
siesta:     37   22.567091  544.254070    0.000000
siesta:     38   26.681519   -5.499845    0.000000
siesta:     39   -2.737204   -2.079617    0.000000
siesta:     40    2.062160   -0.358897    0.000000
siesta:     41   -1.014596   -0.231694    0.000000
siesta:     42    2.398907   -1.885597    0.000000
siesta:     43   -0.174840    7.183615    0.000000
siesta:     44   -0.169631   -7.041390    0.000000
siesta:     45    7.814694  556.033752    0.000000
siesta:     46   22.517280   -2.668817    0.000000
siesta:     47   -1.338068    1.147525    0.000000
siesta:     48   -0.119191    0.813314    0.000000
siesta:     49    0.109326    0.774393    0.000000
siesta:     50   -0.198878   -0.956060    0.000000
siesta:     51  -19.598372  549.824364    0.000000
siesta:     52  -22.229735   -1.064414    0.000000
siesta:     53    4.083906    1.723166    0.000000
siesta:     54    3.562320   -1.245476    0.000000
siesta:     55    1.475880   -2.098700    0.000000
siesta:     56   -6.499706   -1.909330    0.000000
siesta:     57    1.424066   -0.277163    0.000000
siesta:     58   -2.732827   -1.813928    0.000000
siesta:     59   -2.509725    2.158745    0.000000
siesta:     60   -0.144487   -0.650623    0.000000
siesta:     61    0.033191    7.399334    0.000000
siesta:     62    0.049736   -7.371139    0.000000
siesta:     63   -2.902520    2.066517    0.000000
siesta:     64    1.343647    0.239162    0.000000
siesta:     65   -0.120662   -0.507456    0.000000
siesta:     66    0.647310   -0.980424    0.000000
siesta:     67   -2.691504    1.703369    0.000000
siesta:     68   -1.138898   -1.824678    0.000000
siesta:     69   -2.690052    0.892110    0.000000
siesta:     70    0.975041    2.506289    0.000000
siesta:     71  -14.062880  117.485583    0.000000
siesta:     72    2.461659 -407.837677    0.000000
siesta: ----------------------------------------
siesta:    Tot   -0.015466    0.018461    0.000000

siesta: Stress tensor (static) (eV/Ang**3):
siesta:    -0.381843    0.013577    0.000000
siesta:     0.013577   -1.351261    0.000000
siesta:     0.000000    0.000000   -0.000471

siesta: Cell volume =       1893.226884 Ang**3

siesta: Pressure (static):
siesta:                Solid            Molecule  Units
siesta:           0.00629361          0.08832106  Ry/Bohr**3
siesta:           0.57785804          8.10933953  eV/Ang**3
siesta:         925.84065157      12992.73474486  kBar
(Free)E+ p_basis*V_orbitals  =       -9011.426376
(Free)Eharris+ p_basis*V_orbitals  =       -9011.425772

siesta: Electric dipole (a.u.)  =    0.000000    0.000000    0.000000
siesta: Electric dipole (Debye) =    0.000000    0.000000    0.000000

* Maximum dynamic memory allocated : Node    0 =   253 MB
* Maximum dynamic memory allocated : Node    1 =    87 MB
* Maximum dynamic memory allocated : Node    2 =    90 MB
* Maximum dynamic memory allocated : Node    3 =   240 MB
* Maximum dynamic memory allocated : Node    4 =   231 MB
* Maximum dynamic memory allocated : Node    5 =    84 MB
* Maximum dynamic memory allocated : Node    6 =    86 MB
* Maximum dynamic memory allocated : Node    7 =   211 MB

* Maximum memory occured during matrixMtoO                    

timer: CPU execution times:
timer:  Routine       Calls   Time/call    Tot.time        %
timer:  siesta            1  187902.818  187902.818   100.00
timer:  Setup             1       4.032       4.032     0.00
timer:  bands             3     268.761     806.282     0.43
timer:  writewave         1       0.043       0.043     0.00
timer:  KSV_init          1       0.006       0.006     0.00
timer:  IterMD            1  187086.811  187086.811    99.57
timer:  hsparse           1       0.393       0.393     0.00
timer:  overlap           1       7.814       7.814     0.00
timer:  IterSCF          43    4344.775  186825.304    99.43
timer:  kinefsm           2       4.046       8.092     0.00
timer:  nlefsm            2      21.823      43.646     0.02
timer:  DHSCF            44     135.040    5941.773     3.16
timer:  DHSCF1            1       0.992       0.992     0.00
timer:  DHSCF2            1      46.530      46.530     0.02
timer:  REORD           354       0.010       3.548     0.00
timer:  POISON           45       2.238     100.715     0.05
timer:  DHSCF3           44     132.859    5845.807     3.11
timer:  rhoofd           44      28.176    1239.754     0.66
timer:  cellXC           44       3.486     153.392     0.08
timer:  vmat             44      64.555    2840.435     1.51
timer:  MolMec            2       0.000       0.000     0.00
timer:  diagon           43    4208.410  180961.624    96.31
timer:  c-eigval      10054       6.670   67063.839    35.69
timer:  c-buildHS     10054       0.123    1234.612     0.66
timer:  cdiag         19987       6.862  137157.965    72.99
timer:  cdiag1        19987       0.430    8598.413     4.58
timer:  cdiag2        19987       1.910   38175.914    20.32
timer:  cdiag3        19987       3.934   78626.961    41.84
timer:  cdiag4        19987       0.223    4448.451     2.37
timer:  c-eigvec       9933       7.256   72070.094    38.35
timer:  c-buildD       9933       4.287   42579.689    22.66
timer:  DHSCF4            1      46.090      46.090     0.02
timer:  dfscf             1      43.367      43.367     0.02
timer:  overfsm           1       0.490       0.490     0.00
timer:  optical           1       4.994       4.994     0.00
  

elaps: ELAPSED times:
elaps:  Routine       Calls   Time/call    Tot.time        %
elaps:  siesta            1   23515.171   23515.171   100.00
elaps:  Setup             1       0.525       0.525     0.00
elaps:  bands             3      33.648     100.944     0.43
elaps:  writewave         1       0.006       0.006     0.00
elaps:  KSV_init          1       0.001       0.001     0.00
elaps:  IterMD            1   23413.043   23413.043    99.57
elaps:  hsparse           1       0.049       0.049     0.00
elaps:  overlap           1       0.976       0.976     0.00
elaps:  IterSCF          43     543.732   23380.471    99.43
elaps:  kinefsm           2       0.508       1.016     0.00
elaps:  nlefsm            2       2.770       5.539     0.02
elaps:  DHSCF            44      17.031     749.344     3.19
elaps:  DHSCF1            1       0.125       0.125     0.00
elaps:  DHSCF2            1       5.821       5.821     0.02
elaps:  REORD           354       0.001       0.461     0.00
elaps:  POISON           45       0.280      12.622     0.05
elaps:  DHSCF3           44      16.621     731.322     3.11
elaps:  rhoofd           44       7.774     342.046     1.45
elaps:  cellXC           44       0.435      19.148     0.08
elaps:  vmat             44       8.076     355.328     1.51
elaps:  MolMec            2       0.000       0.000     0.00
elaps:  diagon           43     526.680   22647.234    96.31
elaps:  c-eigval      10054       0.835    8390.995    35.68
elaps:  c-buildHS     10054       0.017     169.471     0.72
elaps:  cdiag         19987       0.847   16929.381    71.99
elaps:  cdiag1        19987       0.053    1058.883     4.50
elaps:  cdiag2        19987       0.239    4776.505    20.31
elaps:  cdiag3        19987       0.493    9851.379    41.89
elaps:  cdiag4        19987       0.028     559.782     2.38
elaps:  c-eigvec       9933       0.889    8826.453    37.54
elaps:  c-buildD       9933       0.556    5522.862    23.49
elaps:  DHSCF4            1      11.755      11.755     0.05
elaps:  dfscf             1      11.210      11.210     0.05
elaps:  overfsm           1       0.062       0.062     0.00
elaps:  optical           1       0.001       0.001     0.00
  
>> End of run:  19-APR-2016   8:04:05
