Siesta Version:                                        siesta-3.2-pl-3
Architecture  : x86_64-unknown-linux-gnu--unknown
Compiler flags: mpiifort -g -O2 -fPIC -xSSE4.1 -fp-model source -shared-intel 
PARALLEL version

* Running on   12 nodes in parallel
>> Start of run:   4-MAY-2016   0:08:11

                           ***********************       
                           *  WELCOME TO SIESTA  *       
                           ***********************       

reinit: Reading from standard input
************************** Dump of input data file ****************************
#(1) General system descriptors
SystemName            GRP_doping    # Descriptive name of the system
SystemLabel           GRP_doping    # Short name for naming files
%include STRUCT.fdf
%include KPT.fdf
%include BASIS.fdf
#%include TS.fdf # for transiesta calculation
#(4) DFT, Grid, SCF
XC.functional         GGA           # LDA or GGA (default = LDA)
XC.authors            PBE           # CA (Ceperley-Aldr) = PZ
                                    #    (Perdew-Zunger) - LDA - Default
                                    # PW92 (Perdew-Wang-92) - LDA
                                    # PBE (Perdew-Burke-Ernzerhof) - GGA
MeshCutoff            200.000000    Ry      # Default: 50.0 Ry ~ 0.444 Bohr
                                    #         100.0 Ry ~ 0.314 Bohr
MaxSCFIterations      500           # Default: 50
DM.MixingWeight       0.05          # Default: 0.25
DM.NumberPulay        10            # Default: 0
DM.PulayOnFile        F             # SystemLabel.P1, SystemLabel.P2
DM.Tolerance          1.d-4         # Default: 1.d-4
DM.UseSaveDM          .true.        # because of the bug
SCFMustConverge       .true.
NeglNonOverlapInt     F             # Default: F
#(5) Eigenvalue problem: order-N or diagonalization
SolutionMethod        Diagon        # or Transiesta
ElectronicTemperature 300.0 K       # Default: 300.0 K
#(6) Molecular dynamics and relaxations
#MD.TypeOfRun          CG            # Type of dynamics:
#MD.VariableCell       F
#MD.NumCGsteps         0           # 0 for single-point / 100 for gopt
#MD.MaxCGDispl         0.2 Bohr      # Default: 0.2 Bohr
#MD.MaxForceTol        0.02 eV/Ang   # Default: 0.04 eV/Ang
#MD.MaxStressTol       1.0 GPa       # Default: 1.0 GPa
# Geometry Constraints
#%block GeometryConstraints
#	position from 1 to 44
#%endblock GeometryConstraints
BandLinesScale   pi/a
%block BandLines
 1   0.00000000  0.00000000  0.00000000
50   0.00000000  0.07809418  0.00000000
50   0.04509075  0.07809242  0.00000000
20   0.00000000  0.00000000  0.00000000
%endblock BandLines
************************** End of input data file *****************************

reinit: -----------------------------------------------------------------------
reinit: System Name: GRP_doping
reinit: -----------------------------------------------------------------------
reinit: System Label: GRP_doping                                                  
reinit: -----------------------------------------------------------------------

initatom: Reading input for the pseudopotentials and atomic orbitals ----------
 Species number:            1  Label: B Atomic number:           5
 Species number:            2  Label: C Atomic number:           6
Ground state valence configuration:   2s02  2p01
Reading pseudopotential information in formatted form from B.psf

Valence configuration for pseudopotential generation:
2s( 2.00) rc: 1.74
2p( 1.00) rc: 1.74
3d( 0.00) rc: 1.74
4f( 0.00) rc: 1.74
Ground state valence configuration:   2s02  2p02
Reading pseudopotential information in formatted form from C.psf

Valence configuration for pseudopotential generation:
2s( 2.00) rc: 1.54
2p( 2.00) rc: 1.54
3d( 0.00) rc: 1.54
4f( 0.00) rc: 1.54
For B, standard SIESTA heuristics set lmxkb to 3
 (one more than the basis l, including polarization orbitals).
Use PS.lmax or PS.KBprojectors blocks to override.
For C, standard SIESTA heuristics set lmxkb to 3
 (one more than the basis l, including polarization orbitals).
Use PS.lmax or PS.KBprojectors blocks to override.

<basis_specs>
===============================================================================
B                    Z=   5    Mass=  10.810        Charge= 0.17977+309
Lmxo=1 Lmxkb= 3    BasisType=split      Semic=F
L=0  Nsemic=0  Cnfigmx=2
          n=1  nzeta=2  polorb=0
            splnorm:   0.15000    
               vcte:    0.0000    
               rinn:    0.0000    
                rcs:    0.0000      0.0000    
            lambdas:    1.0000      1.0000    
L=1  Nsemic=0  Cnfigmx=2
          n=1  nzeta=2  polorb=1
            splnorm:   0.15000    
               vcte:    0.0000    
               rinn:    0.0000    
                rcs:    0.0000      0.0000    
            lambdas:    1.0000      1.0000    
-------------------------------------------------------------------------------
L=0  Nkbl=1  erefs: 0.17977+309
L=1  Nkbl=1  erefs: 0.17977+309
L=2  Nkbl=1  erefs: 0.17977+309
L=3  Nkbl=1  erefs: 0.17977+309
===============================================================================
</basis_specs>

atom: Called for B                     (Z =   5)

read_vps: Pseudopotential generation method:
read_vps: ATM3      Troullier-Martins                       
Total valence charge:    3.00000

read_vps: Pseudopotential includes a core correction:
read_vps: Pseudo-core for xc-correction

xc_check: Exchange-correlation functional:
xc_check: GGA Perdew, Burke & Ernzerhof 1996
V l=0 = -2*Zval/r beyond r=  1.7165
V l=1 = -2*Zval/r beyond r=  1.7165
V l=2 = -2*Zval/r beyond r=  1.7165
V l=3 = -2*Zval/r beyond r=  1.6951
All V_l potentials equal beyond r=  1.7165
This should be close to max(r_c) in ps generation
All pots = -2*Zval/r beyond r=  1.7165

VLOCAL1: 99.0% of the norm of Vloc inside     14.733 Ry
VLOCAL1: 99.9% of the norm of Vloc inside     33.577 Ry
atom: Maximum radius for 4*pi*r*r*local-pseudopot. charge    2.04484
atom: Maximum radius for r*vlocal+2*Zval:    1.75994
GHOST: No ghost state for L =  0
GHOST: No ghost state for L =  1
GHOST: No ghost state for L =  2
GHOST: No ghost state for L =  3

KBgen: Kleinman-Bylander projectors: 
   l= 0   rc=  1.897051   el= -0.693730   Ekb=  4.595746   kbcos=  0.286105
   l= 1   rc=  1.920920   el= -0.265236   Ekb= -2.350715   kbcos= -0.315747
   l= 2   rc=  2.044840   el=  0.002055   Ekb= -0.690767   kbcos= -0.013822
   l= 3   rc=  2.149707   el=  0.003188   Ekb= -0.315358   kbcos= -0.002055

KBgen: Total number of  Kleinman-Bylander projectors:   16
atom: -------------------------------------------------------------------------

atom: SANKEY-TYPE ORBITALS:
atom: Selected multiple-zeta basis: split     

SPLIT: Orbitals with angular momentum L= 0

SPLIT: Basis orbitals for state 2s

SPLIT: PAO cut-off radius determined from an
SPLIT: energy shift=  0.007350 Ry

   izeta = 1
                 lambda =    1.000000
                     rc =    5.422032
                 energy =   -0.686029
                kinetic =    0.576707
    potential(screened) =   -1.262736
       potential(ionic) =   -3.271094

   izeta = 2
                 rmatch =    4.222573
              splitnorm =    0.150000
                 energy =   -0.602132
                kinetic =    0.858975
    potential(screened) =   -1.461107
       potential(ionic) =   -3.582536

SPLIT: Orbitals with angular momentum L= 1

SPLIT: Basis orbitals for state 2p

SPLIT: PAO cut-off radius determined from an
SPLIT: energy shift=  0.007350 Ry

   izeta = 1
                 lambda =    1.000000
                     rc =    6.790259
                 energy =   -0.258578
                kinetic =    1.481412
    potential(screened) =   -1.739989
       potential(ionic) =   -3.657461

   izeta = 2
                 rmatch =    4.608740
              splitnorm =    0.150000
                 energy =   -0.173757
                kinetic =    2.186690
    potential(screened) =   -2.360447
       potential(ionic) =   -4.464260

POLgen: Perturbative polarization orbital with L=  2

POLgen: Polarization orbital for state 2p

   izeta = 1
                     rc =    6.790259
                 energy =    0.684082
                kinetic =    1.471481
    potential(screened) =   -0.787399
       potential(ionic) =   -2.406985
atom: Total number of Sankey-type orbitals: 13

atm_pop: Valence configuration (for local Pseudopot. screening):
 2s( 2.00)                                                            
 2p( 1.00)                                                            
Vna: chval, zval:    3.00000   3.00000

Vna:  Cut-off radius for the neutral-atom potential:   6.790259
comcore: Pseudo-core radius Rcore=  2.122997

atom: _________________________________________________________________________

<basis_specs>
===============================================================================
C                    Z=   6    Mass=  12.010        Charge= 0.17977+309
Lmxo=1 Lmxkb= 3    BasisType=split      Semic=F
L=0  Nsemic=0  Cnfigmx=2
          n=1  nzeta=2  polorb=0
            splnorm:   0.15000    
               vcte:    0.0000    
               rinn:    0.0000    
                rcs:    0.0000      0.0000    
            lambdas:    1.0000      1.0000    
L=1  Nsemic=0  Cnfigmx=2
          n=1  nzeta=2  polorb=1
            splnorm:   0.15000    
               vcte:    0.0000    
               rinn:    0.0000    
                rcs:    0.0000      0.0000    
            lambdas:    1.0000      1.0000    
-------------------------------------------------------------------------------
L=0  Nkbl=1  erefs: 0.17977+309
L=1  Nkbl=1  erefs: 0.17977+309
L=2  Nkbl=1  erefs: 0.17977+309
L=3  Nkbl=1  erefs: 0.17977+309
===============================================================================
</basis_specs>

atom: Called for C                     (Z =   6)

read_vps: Pseudopotential generation method:
read_vps: ATM3      Troullier-Martins                       
Total valence charge:    4.00000

read_vps: Pseudopotential includes a core correction:
read_vps: Pseudo-core for xc-correction

xc_check: Exchange-correlation functional:
xc_check: GGA Perdew, Burke & Ernzerhof 1996
V l=0 = -2*Zval/r beyond r=  1.5227
V l=1 = -2*Zval/r beyond r=  1.5227
V l=2 = -2*Zval/r beyond r=  1.5227
V l=3 = -2*Zval/r beyond r=  1.5038
All V_l potentials equal beyond r=  1.5227
This should be close to max(r_c) in ps generation
All pots = -2*Zval/r beyond r=  1.5227

VLOCAL1: 99.0% of the norm of Vloc inside     18.722 Ry
VLOCAL1: 99.9% of the norm of Vloc inside     42.668 Ry
atom: Maximum radius for 4*pi*r*r*local-pseudopot. charge    1.83678
atom: Maximum radius for r*vlocal+2*Zval:    1.58088
GHOST: No ghost state for L =  0
GHOST: No ghost state for L =  1
GHOST: No ghost state for L =  2
GHOST: No ghost state for L =  3

KBgen: Kleinman-Bylander projectors: 
   l= 0   rc=  1.704034   el= -1.009801   Ekb=  5.335044   kbcos=  0.316824
   l= 1   rc=  1.704034   el= -0.388707   Ekb= -3.785862   kbcos= -0.366464
   l= 2   rc=  1.791422   el=  0.001971   Ekb= -0.970471   kbcos= -0.009212
   l= 3   rc=  1.859892   el=  0.003065   Ekb= -0.399525   kbcos= -0.001223

KBgen: Total number of  Kleinman-Bylander projectors:   16
atom: -------------------------------------------------------------------------

atom: SANKEY-TYPE ORBITALS:
atom: Selected multiple-zeta basis: split     

SPLIT: Orbitals with angular momentum L= 0

SPLIT: Basis orbitals for state 2s

SPLIT: PAO cut-off radius determined from an
SPLIT: energy shift=  0.007350 Ry

   izeta = 1
                 lambda =    1.000000
                     rc =    4.632753
                 energy =   -1.002270
                kinetic =    0.855760
    potential(screened) =   -1.858031
       potential(ionic) =   -5.417575

   izeta = 2
                 rmatch =    3.431921
              splitnorm =    0.150000
                 energy =   -0.867111
                kinetic =    1.300804
    potential(screened) =   -2.167915
       potential(ionic) =   -5.962684

SPLIT: Orbitals with angular momentum L= 1

SPLIT: Basis orbitals for state 2p

SPLIT: PAO cut-off radius determined from an
SPLIT: energy shift=  0.007350 Ry

   izeta = 1
                 lambda =    1.000000
                     rc =    5.658549
                 energy =   -0.381140
                kinetic =    2.399701
    potential(screened) =   -2.780841
       potential(ionic) =   -6.206085

   izeta = 2
                 rmatch =    3.653288
              splitnorm =    0.150000
                 energy =   -0.249149
                kinetic =    3.542762
    potential(screened) =   -3.791911
       potential(ionic) =   -7.581078

POLgen: Perturbative polarization orbital with L=  2

POLgen: Polarization orbital for state 2p

   izeta = 1
                     rc =    5.658549
                 energy =    1.109913
                kinetic =    2.304789
    potential(screened) =   -1.194876
       potential(ionic) =   -4.013592
atom: Total number of Sankey-type orbitals: 13

atm_pop: Valence configuration (for local Pseudopot. screening):
 2s( 2.00)                                                            
 2p( 2.00)                                                            
Vna: chval, zval:    4.00000   4.00000

Vna:  Cut-off radius for the neutral-atom potential:   5.658549
comcore: Pseudo-core radius Rcore=  1.791422

atom: _________________________________________________________________________

prinput: Basis input ----------------------------------------------------------

PAO.BasisType split     

%block ChemicalSpeciesLabel
    1    5 B                       # Species index, atomic number, species label
    2    6 C                       # Species index, atomic number, species label
%endblock ChemicalSpeciesLabel

%block PAO.Basis                 # Define Basis set
B                     2                    # Species label, number of l-shells
 n=2   0   2                         # n, l, Nzeta 
   5.422      4.223   
   1.000      1.000   
 n=2   1   2 P   1                   # n, l, Nzeta, Polarization, NzetaPol
   6.790      4.609   
   1.000      1.000   
C                     2                    # Species label, number of l-shells
 n=2   0   2                         # n, l, Nzeta 
   4.633      3.432   
   1.000      1.000   
 n=2   1   2 P   1                   # n, l, Nzeta, Polarization, NzetaPol
   5.659      3.653   
   1.000      1.000   
%endblock PAO.Basis

prinput: ----------------------------------------------------------------------

coor:   Atomic-coordinates input format  =     Fractional

siesta: Atomic coordinates (Bohr) and species
siesta:     -0.02582  21.41544   0.00000  1        1
siesta:      2.30256  22.75985   0.00000  1        2
siesta:      2.30256  25.44831   0.00000  1        3
siesta:     -4.68258  21.41544   0.00000  1        4
siesta:     -2.35420  22.75985   0.00000  1        5
siesta:     -2.35420  25.44831   0.00000  1        6
siesta:     -0.02582  26.79272   0.00000  1        7
siesta:     -4.68258  26.79272   0.00000  1        8
siesta:     -0.02582   2.59549   0.00000  2        9
siesta:     -0.02582   5.28395   0.00000  2       10
siesta:     -2.35420  38.89134   0.00000  2       11
siesta:     -2.35420  41.57980   0.00000  2       12
siesta:      2.30256  38.89134   0.00000  2       13
siesta:      2.30256  41.57980   0.00000  2       14
siesta:      4.63094  34.85847   0.00000  2       15
siesta:      4.63094  37.54693   0.00000  2       16
siesta:      6.95932  30.82560   0.00000  2       17
siesta:      6.95932  33.51406   0.00000  2       18
siesta:      9.28770  26.79272   0.00000  2       19
siesta:      9.28770  29.48119   0.00000  2       20
siesta:     -4.68258  34.85847   0.00000  2       21
siesta:     -4.68258  37.54693   0.00000  2       22
siesta:      2.30256   6.62836   0.00000  2       23
siesta:      2.30256   9.31683   0.00000  2       24
siesta:      4.63094  10.66124   0.00000  2       25
siesta:      4.63094  13.34970   0.00000  2       26
siesta:      6.95932  14.69411   0.00000  2       27
siesta:      6.95932  17.38257   0.00000  2       28
siesta:      9.28770  18.72698   0.00000  2       29
siesta:      9.28770  21.41544   0.00000  2       30
siesta:     11.61608  22.75985   0.00000  2       31
siesta:     11.61608  25.44831   0.00000  2       32
siesta:     -2.35420   6.62836   0.00000  2       33
siesta:     -2.35420   9.31683   0.00000  2       34
siesta:     -0.02582  10.66124   0.00000  2       35
siesta:     -0.02582  13.34970   0.00000  2       36
siesta:      2.30256  14.69411   0.00000  2       37
siesta:      2.30256  17.38257   0.00000  2       38
siesta:      4.63094  18.72698   0.00000  2       39
siesta:      4.63094  21.41544   0.00000  2       40
siesta:      6.95932  22.75985   0.00000  2       41
siesta:      6.95932  25.44831   0.00000  2       42
siesta:     -4.68258  10.66124   0.00000  2       43
siesta:     -4.68258  13.34970   0.00000  2       44
siesta:     -2.35420  14.69411   0.00000  2       45
siesta:     -2.35420  17.38257   0.00000  2       46
siesta:     -0.02582  18.72698   0.00000  2       47
siesta:     -7.01096  14.69411   0.00000  2       48
siesta:     -7.01096  17.38257   0.00000  2       49
siesta:     -4.68258  18.72698   0.00000  2       50
siesta:     -9.33934  18.72698   0.00000  2       51
siesta:     -9.33934  21.41544   0.00000  2       52
siesta:     -7.01096  22.75985   0.00000  2       53
siesta:     -7.01096  25.44831   0.00000  2       54
siesta:    -11.66772  22.75985   0.00000  2       55
siesta:    -11.66772  25.44831   0.00000  2       56
siesta:     -9.33934  26.79272   0.00000  2       57
siesta:     -9.33934  29.48119   0.00000  2       58
siesta:      4.63094  26.79272   0.00000  2       59
siesta:      4.63094  29.48119   0.00000  2       60
siesta:     -0.02582  29.48119   0.00000  2       61
siesta:     -4.68258  29.48119   0.00000  2       62
siesta:      2.30256  30.82560   0.00000  2       63
siesta:      2.30256  33.51406   0.00000  2       64
siesta:     -2.35420  30.82560   0.00000  2       65
siesta:     -2.35420  33.51406   0.00000  2       66
siesta:     -7.01096  30.82560   0.00000  2       67
siesta:     -7.01096  33.51406   0.00000  2       68
siesta:     -0.02582  34.85847   0.00000  2       69
siesta:     -0.02582  37.54693   0.00000  2       70
siesta:     -0.02582  42.92421   0.00000  2       71
siesta:     -0.02582  45.61267   0.00000  2       72

siesta: System type = slab      

initatomlists: Number of atoms, orbitals, and projectors:     72   936  1152

siesta: ******************** Simulation parameters ****************************
siesta:
siesta: The following are some of the parameters of the simulation.
siesta: A complete list of the parameters used, including default values,
siesta: can be found in file out.fdf
siesta:
redata: Non-Collinear-spin run           =     F
redata: SpinPolarized (Up/Down) run      =     F
redata: Number of spin components        =     1
redata: Long output                      =     F
redata: Number of Atomic Species         =        2
redata: Charge density info will appear in .RHO file
redata: Write Mulliken Pop.              =     NO
redata: Mesh Cutoff                      =   200.0000  Ry
redata: Net charge of the system         =     0.0000 |e|
redata: Max. number of SCF Iter          =      500
redata: SCF convergence failure will abort job
redata: Performing Pulay mixing using    =    10 iterations
redata: Mix DM in first SCF step ?       =     F
redata: Write Pulay info on disk?        =     F
redata: Discard 1st Pulay DM after  kick =     F
redata: New DM Mixing Weight             =     0.0500
redata: New DM Occupancy tolerance       = 0.000000000001
redata: No kicks to SCF
redata: DM Mixing Weight for Kicks       =     0.5000
redata: DM Tolerance for SCF             =     0.000100
redata: Require Energy convergence for SCF =     F
redata: DM Energy tolerance for SCF      =     0.000100 eV
redata: Require Harris convergence for SCF =     F
redata: DM Harris energy tolerance for SCF =     0.000100 eV
redata: Using Saved Data (generic)   =     F
redata: Use continuation files for DM    =     T
redata: Neglect nonoverlap interactions  =     F
redata: Method of Calculation            =     Diagonalization
redata: Divide and Conquer               =     T
redata: Electronic Temperature           =     0.0019  Ry
redata: Fix the spin of the system       =     F
redata: Dynamics option                  =     Verlet MD run
redata: Initial MD time step             =        1
redata:   Final MD time step             =        1
redata: Length of MD time step           =     1.0000  fs
redata: Initial Temperature of MD run    =     0.0000  K
redata: Perform a MD quench              =     F
redata: ***********************************************************************
Total number of electrons:   280.000000
Total ionic charge:   280.000000

* ProcessorY, Blocksize:    3  24

k-point displ. along   1 input, could be:     0.50    0.00
k-point displ. along   2 input, could be:     0.50    0.00
 Kpoints in:          231 . Kpoints trimmed:          231

siesta: k-grid: Number of k-points =   231
siesta: k-grid: Cutoff (effective) =     5.000 Ang
siesta: k-grid: Supercell and displacements
siesta: k-grid:   21   0   0      0.500
siesta: k-grid:    0  21   0      0.500
siesta: k-grid:    0   0   1      0.000
Naive supercell factors:     2    2    2

superc: Internal auxiliary supercell:     2 x     2 x     2  =       8
superc: Number of atoms, orbitals, and projectors:    576   7488   9216

* Maximum dynamic memory allocated =     4 MB

siesta:                 ==============================
                            Begin MD step =      1
                        ==============================

superc: Internal auxiliary supercell:     2 x     2 x     2  =       8
superc: Number of atoms, orbitals, and projectors:    576   7488   9216

outcell: Unit cell vectors (Ang):
       12.804619    7.392750    0.000000
        0.000000   14.785500    0.000000
        0.000000    0.000000   10.000000

outcell: Cell vector modules (Ang)   :   14.785500   14.785500   10.000000
outcell: Cell angles (23,13,12) (deg):     90.0000     90.0000     60.0000
outcell: Cell volume (Ang**3)        :   1893.2269
New_DM. Step:     1
Initializing Density Matrix...

InitMesh: MESH =   120 x   120 x    90 =     1296000
InitMesh: Mesh cutoff (required, used) =   200.000   223.865 Ry

* Maximum dynamic memory allocated =   150 MB

stepf: Fermi-Dirac step function

siesta: Program's energy decomposition (eV):
siesta: Ebs     =     -5755.709123
siesta: Eions   =     17378.557381
siesta: Ena     =      4530.613427
siesta: Ekin    =      5956.271858
siesta: Enl     =       695.102721
siesta: DEna    =        -0.000013
siesta: DUscf   =         0.000000
siesta: DUext   =         0.000000
siesta: Exc     =     -4185.202953
siesta: eta*DQ  =         0.000000
siesta: Emadel  =         0.000000
siesta: Emeta   =         0.000000
siesta: Emolmec =         0.000000
siesta: Ekinion =         0.000000
siesta: Eharris =    -10056.659852
siesta: Etot    =    -10381.772341
siesta: FreeEng =    -10381.772341

siesta: iscf   Eharris(eV)      E_KS(eV)   FreeEng(eV)   dDmax  Ef(eV)
siesta:    1   -10056.6599   -10381.7723   -10381.7723  6.3602 -8.0860
timer: Routine,Calls,Time,% = IterSCF        1    3027.648  99.59
elaps: Routine,Calls,Wall,% = IterSCF        1     252.904  99.59
siesta:    2   -14194.5527    -9393.4911    -9393.6273 15.9954 -2.8341
siesta:    3   -10000.2295   -10221.7467   -10221.7647  3.3854 -6.0770
siesta:    4    -9975.0006   -10066.4314   -10066.4628  1.2145 -5.3808
siesta:    5    -9930.7040    -9973.3802    -9973.4172  0.7754 -5.2646
siesta:    6    -9920.5710    -9963.0584    -9963.0726  0.7269 -5.1873
siesta:    7    -9913.4726    -9951.8719    -9951.9321  0.6705 -4.9932
siesta:    8    -9909.1269    -9942.8595    -9942.9130  0.6033 -5.0731
siesta:    9    -9907.3616    -9931.1335    -9931.2064  0.5317 -5.0630
siesta:   10    -9909.6638    -9906.7054    -9906.7785  0.3530 -4.8747
siesta:   11    -9907.8645    -9901.7816    -9901.8657  0.2675 -4.8570
siesta:   12    -9907.1996    -9895.1361    -9895.2004  0.1817 -4.8372
siesta:   13    -9906.6961    -9888.0356    -9888.0971  0.1707 -4.8067
siesta:   14    -9906.3279    -9885.4823    -9885.5433  0.1485 -4.8160
siesta:   15    -9906.0399    -9884.8025    -9884.8745  0.1198 -4.7549
siesta:   16    -9905.7819    -9887.9192    -9887.9909  0.1852 -4.7803
siesta:   17    -9905.5917    -9890.9492    -9891.0263  0.0790 -4.8197
siesta:   18    -9905.3708    -9894.9041    -9894.9827  0.0713 -4.8708
siesta:   19    -9905.2931    -9895.8321    -9895.9141  0.0494 -4.8607
siesta:   20    -9905.2833    -9897.8023    -9897.8840  0.0474 -4.8659
siesta:   21    -9905.2813    -9900.3978    -9900.4794  0.0314 -4.8732
siesta:   22    -9905.2462    -9902.6653    -9902.7435  0.0256 -4.8789
siesta:   23    -9905.2328    -9904.0718    -9904.1506  0.0362 -4.8830
siesta:   24    -9905.2237    -9903.5321    -9903.6068  0.0241 -4.8762
siesta:   25    -9905.2170    -9903.6628    -9903.7390  0.0111 -4.8685
siesta:   26    -9905.2164    -9904.3124    -9904.3913  0.0084 -4.8696
siesta:   27    -9905.2161    -9904.9252    -9905.0044  0.0059 -4.8713
siesta:   28    -9905.2157    -9905.3026    -9905.3817  0.0042 -4.8718
siesta:   29    -9905.2159    -9905.4165    -9905.4955  0.0019 -4.8710
siesta:   30    -9905.2158    -9905.3939    -9905.4724  0.0012 -4.8710
siesta:   31    -9905.2158    -9905.3232    -9905.4019  0.0011 -4.8710
siesta:   32    -9905.2157    -9905.3109    -9905.3895  0.0008 -4.8711
siesta:   33    -9905.2158    -9905.2446    -9905.3233  0.0006 -4.8713
siesta:   34    -9905.2158    -9905.2522    -9905.3309  0.0005 -4.8712
siesta:   35    -9905.2158    -9905.2480    -9905.3266  0.0003 -4.8712
siesta:   36    -9905.2158    -9905.2429    -9905.3215  0.0002 -4.8713
siesta:   37    -9905.2158    -9905.2276    -9905.3062  0.0002 -4.8714
siesta:   38    -9905.2158    -9905.2230    -9905.3017  0.0001 -4.8714

siesta: E_KS(eV) =            -9905.2156

siesta: E_KS - E_eggbox =     -9905.2156

siesta: Atomic forces (eV/Ang):
----------------------------------------
   Tot   -0.167942   -0.066603    0.000000
----------------------------------------
   Max  562.440608
   Res  161.264795    sqrt( Sum f_i^2 / 3N )
----------------------------------------
   Max  562.440608    constrained

Stress-tensor-Voigt (kbar):     -773.52    -2889.75       -0.41       -0.19        0.00        0.00
(Free)E + p*V (eV/cell)    -8462.2353
Target enthalpy (eV/cell)    -9905.2942

siesta: Stress tensor (static) (eV/Ang**3):
        -0.482787   -0.000117    0.000000
        -0.000117   -1.803622    0.000000
         0.000000    0.000000   -0.000256

siesta: Pressure (static):       1221.22727244  kBar

siesta: Stress tensor (total) (eV/Ang**3):
        -0.482787   -0.000117    0.000000
        -0.000117   -1.803622    0.000000
         0.000000    0.000000   -0.000256

siesta: Pressure (total):       1221.22727244  kBar

siesta: Temp_ion =       0.000 K

* Maximum dynamic memory allocated =   162 MB
Computing bands...

siesta: Program's energy decomposition (eV):
siesta: Ebs     =     -4426.815052
siesta: Eions   =     17378.557381
siesta: Ena     =      4530.613427
siesta: Ekin    =      8925.527644
siesta: Enl     =      -932.263558
siesta: DEna    =      -797.377494
siesta: DUscf   =       105.081486
siesta: DUext   =         0.000000
siesta: Exc     =     -4358.239754
siesta: eta*DQ  =         0.000000
siesta: Emadel  =         0.000000
siesta: Emeta   =         0.000000
siesta: Emolmec =         0.000000
siesta: Ekinion =         0.000000
siesta: Eharris =     -9905.215761
siesta: Etot    =     -9905.215630
siesta: FreeEng =     -9905.294248

siesta: Final energy (eV):
siesta:  Band Struct. =   -4426.815052
siesta:       Kinetic =    8925.527644
siesta:       Hartree =   29355.686031
siesta:    Ext. field =       0.000000
siesta:   Exch.-corr. =   -4358.239754
siesta:  Ion-electron =  -67323.612888
siesta:       Ion-ion =   23495.423337
siesta:       Ekinion =       0.000000
siesta:         Total =   -9905.215630

siesta: Atomic forces (eV/Ang):
siesta:      1   -0.535403   -4.378091    0.000000
siesta:      2    3.693150   -2.416493    0.000000
siesta:      3    3.702803    2.398475    0.000000
siesta:      4   -3.288732   -2.285889    0.000000
siesta:      5    0.590039    0.280577    0.000000
siesta:      6    0.601491   -0.263855    0.000000
siesta:      7   -0.529058    4.384332    0.000000
siesta:      8   -3.291925    2.282111    0.000000
siesta:      9   -0.068862  551.116411    0.000000
siesta:     10   -0.143603 -128.200873    0.000000
siesta:     11    1.847674  126.268913    0.000000
siesta:     12  -15.601141 -547.682512    0.000000
siesta:     13   -1.822718  126.485715    0.000000
siesta:     14   14.809333 -547.811890    0.000000
siesta:     15   27.021972    5.401115    0.000000
siesta:     16   33.361259 -548.727043    0.000000
siesta:     17    2.320925    0.341322    0.000000
siesta:     18   -2.672573    2.068356    0.000000
siesta:     19    2.400596    1.458160    0.000000
siesta:     20   -1.305127    0.508607    0.000000
siesta:     21  -27.082853    5.644870    0.000000
siesta:     22  -33.360860 -548.863756    0.000000
siesta:     23   14.816549  547.799611    0.000000
siesta:     24   -1.814082 -126.480120    0.000000
siesta:     25   33.371373  548.720469    0.000000
siesta:     26   27.019160   -5.419080    0.000000
siesta:     27   -2.668960   -2.064111    0.000000
siesta:     28    2.305961   -0.345118    0.000000
siesta:     29   -1.304619   -0.507074    0.000000
siesta:     30    2.396680   -1.461393    0.000000
siesta:     31   -0.188480    7.115026    0.000000
siesta:     32   -0.194255   -7.112642    0.000000
siesta:     33  -15.613254  547.684882    0.000000
siesta:     34    1.851316 -126.272480    0.000000
siesta:     35    0.119714  542.620626    0.000000
siesta:     36    0.079658 -125.622748    0.000000
siesta:     37   23.355895  557.296804    0.000000
siesta:     38   21.342088   -5.400779    0.000000
siesta:     39   -0.611564    2.240059    0.000000
siesta:     40    2.374394   -2.035766    0.000000
siesta:     41    0.219280    0.151107    0.000000
siesta:     42    0.209938   -0.146102    0.000000
siesta:     43  -33.351575  548.881798    0.000000
siesta:     44  -27.105601   -5.631485    0.000000
siesta:     45  -22.578680  557.243476    0.000000
siesta:     46  -21.636782   -5.560019    0.000000
siesta:     47   -0.146810  562.440608    0.000000
siesta:     48    2.578714   -1.805322    0.000000
siesta:     49   -2.523863   -0.646817    0.000000
siesta:     50    1.613357   -1.749897    0.000000
siesta:     51    1.314681   -0.732292    0.000000
siesta:     52   -2.777112   -1.202475    0.000000
siesta:     53   -3.040099    2.477347    0.000000
siesta:     54   -3.047025   -2.479224    0.000000
siesta:     55    0.276672    6.803929    0.000000
siesta:     56    0.271676   -6.804413    0.000000
siesta:     57   -2.768342    1.203941    0.000000
siesta:     58    1.314308    0.729591    0.000000
siesta:     59    2.365641    2.041716    0.000000
siesta:     60   -0.622600   -2.235992    0.000000
siesta:     61   -0.139493 -562.434616    0.000000
siesta:     62    1.614332    1.748277    0.000000
siesta:     63   21.360113    5.402032    0.000000
siesta:     64   23.340759 -557.308475    0.000000
siesta:     65  -21.625155    5.560722    0.000000
siesta:     66  -22.570378 -557.245521    0.000000
siesta:     67   -2.512437    0.644630    0.000000
siesta:     68    2.583473    1.812839    0.000000
siesta:     69    0.047627  125.595255    0.000000
siesta:     70    0.101514 -542.652426    0.000000
siesta:     71   -0.160976  128.172308    0.000000
siesta:     72   -0.057061 -551.105832    0.000000
siesta: ----------------------------------------
siesta:    Tot   -0.167942   -0.066603    0.000000

siesta: Stress tensor (static) (eV/Ang**3):
siesta:    -0.482787   -0.000117    0.000000
siesta:    -0.000117   -1.803622    0.000000
siesta:     0.000000    0.000000   -0.000256

siesta: Cell volume =       1893.226884 Ang**3

siesta: Pressure (static):
siesta:                Solid            Molecule  Units
siesta:           0.00830157          0.12583832  Ry/Bohr**3
siesta:           0.76222187         11.55404622  eV/Ang**3
siesta:        1221.22727244      18511.82296827  kBar
(Free)E+ p_basis*V_orbitals  =       -9872.029003
(Free)Eharris+ p_basis*V_orbitals  =       -9872.021726

siesta: Electric dipole (a.u.)  =    0.000000    0.000000    0.000000
siesta: Electric dipole (Debye) =    0.000000    0.000000    0.000000

* Maximum dynamic memory allocated : Node    0 =   162 MB
* Maximum dynamic memory allocated : Node    1 =    65 MB
* Maximum dynamic memory allocated : Node    2 =    66 MB
* Maximum dynamic memory allocated : Node    3 =   147 MB
* Maximum dynamic memory allocated : Node    4 =   154 MB
* Maximum dynamic memory allocated : Node    5 =    57 MB
* Maximum dynamic memory allocated : Node    6 =    59 MB
* Maximum dynamic memory allocated : Node    7 =   148 MB
* Maximum dynamic memory allocated : Node    8 =   148 MB
* Maximum dynamic memory allocated : Node    9 =    59 MB
* Maximum dynamic memory allocated : Node   10 =    60 MB
* Maximum dynamic memory allocated : Node   11 =   141 MB

* Maximum memory occured during matrixMtoO                    

timer: CPU execution times:
timer:  Routine       Calls   Time/call    Tot.time        %
timer:  siesta            1  112422.306  112422.306   100.00
timer:  Setup             1       3.344       3.344     0.00
timer:  bands             3     225.701     677.104     0.60
timer:  writewave         1       0.024       0.024     0.00
timer:  KSV_init          1       0.003       0.003     0.00
timer:  IterMD            1  111734.911  111734.911    99.39
timer:  hsparse           1       0.279       0.279     0.00
timer:  overlap           1       6.020       6.020     0.01
timer:  IterSCF          38    2936.709  111594.935    99.26
timer:  kinefsm           2       3.070       6.141     0.01
timer:  nlefsm            2      19.563      39.125     0.03
timer:  DHSCF            39      73.208    2855.127     2.54
timer:  DHSCF1            1       1.197       1.197     0.00
timer:  DHSCF2            1      31.467      31.467     0.03
timer:  REORD           314       0.002       0.672     0.00
timer:  POISON           40       0.450      18.019     0.02
timer:  DHSCF3           39      71.701    2796.340     2.49
timer:  rhoofd           39      15.892     619.804     0.55
timer:  cellXC           39       2.431      94.822     0.08
timer:  vmat             39      32.419    1264.359     1.12
timer:  MolMec            2       0.000       0.001     0.00
timer:  diagon           38    2862.260  108765.882    96.75
timer:  c-eigval       8899       5.582   49674.935    44.19
timer:  c-buildHS      8899       0.035     309.758     0.28
timer:  cdiag         17677       5.683  100453.673    89.35
timer:  cdiag1        17677       0.261    4605.623     4.10
timer:  cdiag2        17677       1.841   32550.795    28.95
timer:  cdiag3        17677       3.366   59501.301    52.93
timer:  cdiag4        17677       0.088    1548.733     1.38
timer:  c-eigvec       8778       5.850   51352.278    45.68
timer:  c-buildD       8778       0.953    8367.336     7.44
timer:  DHSCF4            1      25.840      25.840     0.02
timer:  dfscf             1      23.792      23.792     0.02
timer:  overfsm           1       0.315       0.315     0.00
timer:  optical           1       6.342       6.342     0.01
  

elaps: ELAPSED times:
elaps:  Routine       Calls   Time/call    Tot.time        %
elaps:  siesta            1    9390.536    9390.536   100.00
elaps:  Setup             1       0.279       0.279     0.00
elaps:  bands             3      18.868      56.603     0.60
elaps:  writewave         1       0.002       0.002     0.00
elaps:  KSV_init          1       0.000       0.000     0.00
elaps:  IterMD            1    9333.119    9333.119    99.39
elaps:  hsparse           1       0.028       0.028     0.00
elaps:  overlap           1       0.717       0.717     0.01
elaps:  IterSCF          38     245.301    9321.427    99.26
elaps:  kinefsm           2       0.369       0.738     0.01
elaps:  nlefsm            2       1.734       3.469     0.04
elaps:  DHSCF            39       6.168     240.554     2.56
elaps:  DHSCF1            1       0.101       0.101     0.00
elaps:  DHSCF2            1       2.627       2.627     0.03
elaps:  REORD           314       0.000       0.092     0.00
elaps:  POISON           40       0.038       1.514     0.02
elaps:  DHSCF3           39       5.990     233.624     2.49
elaps:  rhoofd           39       3.030     118.155     1.26
elaps:  cellXC           39       0.203       7.902     0.08
elaps:  vmat             39       2.709     105.651     1.13
elaps:  MolMec            2       0.000       0.000     0.00
elaps:  diagon           38     239.089    9085.395    96.75
elaps:  c-eigval       8899       0.466    4149.245    44.19
elaps:  c-buildHS      8899       0.004      34.353     0.37
elaps:  cdiag         17677       0.469    8295.467    88.34
elaps:  cdiag1        17677       0.021     375.914     4.00
elaps:  cdiag2        17677       0.154    2721.378    28.98
elaps:  cdiag3        17677       0.282    4977.776    53.01
elaps:  cdiag4        17677       0.007     123.968     1.32
elaps:  c-eigvec       8778       0.480    4210.152    44.83
elaps:  c-buildD       8778       0.089     778.037     8.29
elaps:  DHSCF4            1       4.163       4.163     0.04
elaps:  dfscf             1       3.911       3.911     0.04
elaps:  overfsm           1       0.036       0.036     0.00
elaps:  optical           1       0.000       0.000     0.00
  
>> End of run:   4-MAY-2016   2:44:42
