Siesta Version:                                        siesta-3.2-pl-3
Architecture  : x86_64-unknown-linux-gnu--unknown
Compiler flags: mpiifort -g -O2 -fPIC -xSSE4.1 -fp-model source -shared-intel 
PARALLEL version

* Running on    8 nodes in parallel
>> Start of run:  28-APR-2016   1:36:43

                           ***********************       
                           *  WELCOME TO SIESTA  *       
                           ***********************       

reinit: Reading from standard input
************************** Dump of input data file ****************************
#(1) General system descriptors
SystemName            GRP_doping    # Descriptive name of the system
SystemLabel           GRP_doping    # Short name for naming files
%include STRUCT.fdf
%include KPT.fdf
%include BASIS.fdf
#%include TS.fdf # for transiesta calculation
#(4) DFT, Grid, SCF
XC.functional         GGA           # LDA or GGA (default = LDA)
XC.authors            PBE           # CA (Ceperley-Aldr) = PZ
                                    #    (Perdew-Zunger) - LDA - Default
                                    # PW92 (Perdew-Wang-92) - LDA
                                    # PBE (Perdew-Burke-Ernzerhof) - GGA
MeshCutoff            200.000000    Ry      # Default: 50.0 Ry ~ 0.444 Bohr
                                    #         100.0 Ry ~ 0.314 Bohr
MaxSCFIterations      500           # Default: 50
DM.MixingWeight       0.05          # Default: 0.25
DM.NumberPulay        10            # Default: 0
DM.PulayOnFile        F             # SystemLabel.P1, SystemLabel.P2
DM.Tolerance          1.d-4         # Default: 1.d-4
DM.UseSaveDM          .true.        # because of the bug
SCFMustConverge       .true.
NeglNonOverlapInt     F             # Default: F
#(5) Eigenvalue problem: order-N or diagonalization
SolutionMethod        Diagon        # or Transiesta
ElectronicTemperature 300.0 K       # Default: 300.0 K
#(6) Molecular dynamics and relaxations
#MD.TypeOfRun          CG            # Type of dynamics:
#MD.VariableCell       F
#MD.NumCGsteps         0           # 0 for single-point / 100 for gopt
#MD.MaxCGDispl         0.2 Bohr      # Default: 0.2 Bohr
#MD.MaxForceTol        0.02 eV/Ang   # Default: 0.04 eV/Ang
#MD.MaxStressTol       1.0 GPa       # Default: 1.0 GPa
# Geometry Constraints
#%block GeometryConstraints
#	position from 1 to 44
#%endblock GeometryConstraints
BandLinesScale   pi/a
%block BandLines
 1   0.00000000  0.00000000  0.00000000
50   0.00000000  0.07809418  0.00000000
50   0.04509075  0.07809242  0.00000000
20   0.00000000  0.00000000  0.00000000
%endblock BandLines
************************** End of input data file *****************************

reinit: -----------------------------------------------------------------------
reinit: System Name: GRP_doping
reinit: -----------------------------------------------------------------------
reinit: System Label: GRP_doping                                                  
reinit: -----------------------------------------------------------------------

initatom: Reading input for the pseudopotentials and atomic orbitals ----------
 Species number:            1  Label: B Atomic number:           5
 Species number:            2  Label: C Atomic number:           6
Ground state valence configuration:   2s02  2p01
Reading pseudopotential information in formatted form from B.psf

Valence configuration for pseudopotential generation:
2s( 2.00) rc: 1.74
2p( 1.00) rc: 1.74
3d( 0.00) rc: 1.74
4f( 0.00) rc: 1.74
Ground state valence configuration:   2s02  2p02
Reading pseudopotential information in formatted form from C.psf

Valence configuration for pseudopotential generation:
2s( 2.00) rc: 1.54
2p( 2.00) rc: 1.54
3d( 0.00) rc: 1.54
4f( 0.00) rc: 1.54
For B, standard SIESTA heuristics set lmxkb to 3
 (one more than the basis l, including polarization orbitals).
Use PS.lmax or PS.KBprojectors blocks to override.
For C, standard SIESTA heuristics set lmxkb to 3
 (one more than the basis l, including polarization orbitals).
Use PS.lmax or PS.KBprojectors blocks to override.

<basis_specs>
===============================================================================
B                    Z=   5    Mass=  10.810        Charge= 0.17977+309
Lmxo=1 Lmxkb= 3    BasisType=split      Semic=F
L=0  Nsemic=0  Cnfigmx=2
          n=1  nzeta=2  polorb=0
            splnorm:   0.15000    
               vcte:    0.0000    
               rinn:    0.0000    
                rcs:    0.0000      0.0000    
            lambdas:    1.0000      1.0000    
L=1  Nsemic=0  Cnfigmx=2
          n=1  nzeta=2  polorb=1
            splnorm:   0.15000    
               vcte:    0.0000    
               rinn:    0.0000    
                rcs:    0.0000      0.0000    
            lambdas:    1.0000      1.0000    
-------------------------------------------------------------------------------
L=0  Nkbl=1  erefs: 0.17977+309
L=1  Nkbl=1  erefs: 0.17977+309
L=2  Nkbl=1  erefs: 0.17977+309
L=3  Nkbl=1  erefs: 0.17977+309
===============================================================================
</basis_specs>

atom: Called for B                     (Z =   5)

read_vps: Pseudopotential generation method:
read_vps: ATM3      Troullier-Martins                       
Total valence charge:    3.00000

read_vps: Pseudopotential includes a core correction:
read_vps: Pseudo-core for xc-correction

xc_check: Exchange-correlation functional:
xc_check: GGA Perdew, Burke & Ernzerhof 1996
V l=0 = -2*Zval/r beyond r=  1.7165
V l=1 = -2*Zval/r beyond r=  1.7165
V l=2 = -2*Zval/r beyond r=  1.7165
V l=3 = -2*Zval/r beyond r=  1.6951
All V_l potentials equal beyond r=  1.7165
This should be close to max(r_c) in ps generation
All pots = -2*Zval/r beyond r=  1.7165

VLOCAL1: 99.0% of the norm of Vloc inside     14.733 Ry
VLOCAL1: 99.9% of the norm of Vloc inside     33.577 Ry
atom: Maximum radius for 4*pi*r*r*local-pseudopot. charge    2.04484
atom: Maximum radius for r*vlocal+2*Zval:    1.75994
GHOST: No ghost state for L =  0
GHOST: No ghost state for L =  1
GHOST: No ghost state for L =  2
GHOST: No ghost state for L =  3

KBgen: Kleinman-Bylander projectors: 
   l= 0   rc=  1.897051   el= -0.693730   Ekb=  4.595746   kbcos=  0.286105
   l= 1   rc=  1.920920   el= -0.265236   Ekb= -2.350715   kbcos= -0.315747
   l= 2   rc=  2.044840   el=  0.002055   Ekb= -0.690767   kbcos= -0.013822
   l= 3   rc=  2.149707   el=  0.003188   Ekb= -0.315358   kbcos= -0.002055

KBgen: Total number of  Kleinman-Bylander projectors:   16
atom: -------------------------------------------------------------------------

atom: SANKEY-TYPE ORBITALS:
atom: Selected multiple-zeta basis: split     

SPLIT: Orbitals with angular momentum L= 0

SPLIT: Basis orbitals for state 2s

SPLIT: PAO cut-off radius determined from an
SPLIT: energy shift=  0.007350 Ry

   izeta = 1
                 lambda =    1.000000
                     rc =    5.422032
                 energy =   -0.686029
                kinetic =    0.576707
    potential(screened) =   -1.262736
       potential(ionic) =   -3.271094

   izeta = 2
                 rmatch =    4.222573
              splitnorm =    0.150000
                 energy =   -0.602132
                kinetic =    0.858975
    potential(screened) =   -1.461107
       potential(ionic) =   -3.582536

SPLIT: Orbitals with angular momentum L= 1

SPLIT: Basis orbitals for state 2p

SPLIT: PAO cut-off radius determined from an
SPLIT: energy shift=  0.007350 Ry

   izeta = 1
                 lambda =    1.000000
                     rc =    6.790259
                 energy =   -0.258578
                kinetic =    1.481412
    potential(screened) =   -1.739989
       potential(ionic) =   -3.657461

   izeta = 2
                 rmatch =    4.608740
              splitnorm =    0.150000
                 energy =   -0.173757
                kinetic =    2.186690
    potential(screened) =   -2.360447
       potential(ionic) =   -4.464260

POLgen: Perturbative polarization orbital with L=  2

POLgen: Polarization orbital for state 2p

   izeta = 1
                     rc =    6.790259
                 energy =    0.684082
                kinetic =    1.471481
    potential(screened) =   -0.787399
       potential(ionic) =   -2.406985
atom: Total number of Sankey-type orbitals: 13

atm_pop: Valence configuration (for local Pseudopot. screening):
 2s( 2.00)                                                            
 2p( 1.00)                                                            
Vna: chval, zval:    3.00000   3.00000

Vna:  Cut-off radius for the neutral-atom potential:   6.790259
comcore: Pseudo-core radius Rcore=  2.122997

atom: _________________________________________________________________________

<basis_specs>
===============================================================================
C                    Z=   6    Mass=  12.010        Charge= 0.17977+309
Lmxo=1 Lmxkb= 3    BasisType=split      Semic=F
L=0  Nsemic=0  Cnfigmx=2
          n=1  nzeta=2  polorb=0
            splnorm:   0.15000    
               vcte:    0.0000    
               rinn:    0.0000    
                rcs:    0.0000      0.0000    
            lambdas:    1.0000      1.0000    
L=1  Nsemic=0  Cnfigmx=2
          n=1  nzeta=2  polorb=1
            splnorm:   0.15000    
               vcte:    0.0000    
               rinn:    0.0000    
                rcs:    0.0000      0.0000    
            lambdas:    1.0000      1.0000    
-------------------------------------------------------------------------------
L=0  Nkbl=1  erefs: 0.17977+309
L=1  Nkbl=1  erefs: 0.17977+309
L=2  Nkbl=1  erefs: 0.17977+309
L=3  Nkbl=1  erefs: 0.17977+309
===============================================================================
</basis_specs>

atom: Called for C                     (Z =   6)

read_vps: Pseudopotential generation method:
read_vps: ATM3      Troullier-Martins                       
Total valence charge:    4.00000

read_vps: Pseudopotential includes a core correction:
read_vps: Pseudo-core for xc-correction

xc_check: Exchange-correlation functional:
xc_check: GGA Perdew, Burke & Ernzerhof 1996
V l=0 = -2*Zval/r beyond r=  1.5227
V l=1 = -2*Zval/r beyond r=  1.5227
V l=2 = -2*Zval/r beyond r=  1.5227
V l=3 = -2*Zval/r beyond r=  1.5038
All V_l potentials equal beyond r=  1.5227
This should be close to max(r_c) in ps generation
All pots = -2*Zval/r beyond r=  1.5227

VLOCAL1: 99.0% of the norm of Vloc inside     18.722 Ry
VLOCAL1: 99.9% of the norm of Vloc inside     42.668 Ry
atom: Maximum radius for 4*pi*r*r*local-pseudopot. charge    1.83678
atom: Maximum radius for r*vlocal+2*Zval:    1.58088
GHOST: No ghost state for L =  0
GHOST: No ghost state for L =  1
GHOST: No ghost state for L =  2
GHOST: No ghost state for L =  3

KBgen: Kleinman-Bylander projectors: 
   l= 0   rc=  1.704034   el= -1.009801   Ekb=  5.335044   kbcos=  0.316824
   l= 1   rc=  1.704034   el= -0.388707   Ekb= -3.785862   kbcos= -0.366464
   l= 2   rc=  1.791422   el=  0.001971   Ekb= -0.970471   kbcos= -0.009212
   l= 3   rc=  1.859892   el=  0.003065   Ekb= -0.399525   kbcos= -0.001223

KBgen: Total number of  Kleinman-Bylander projectors:   16
atom: -------------------------------------------------------------------------

atom: SANKEY-TYPE ORBITALS:
atom: Selected multiple-zeta basis: split     

SPLIT: Orbitals with angular momentum L= 0

SPLIT: Basis orbitals for state 2s

SPLIT: PAO cut-off radius determined from an
SPLIT: energy shift=  0.007350 Ry

   izeta = 1
                 lambda =    1.000000
                     rc =    4.632753
                 energy =   -1.002270
                kinetic =    0.855760
    potential(screened) =   -1.858031
       potential(ionic) =   -5.417575

   izeta = 2
                 rmatch =    3.431921
              splitnorm =    0.150000
                 energy =   -0.867111
                kinetic =    1.300804
    potential(screened) =   -2.167915
       potential(ionic) =   -5.962684

SPLIT: Orbitals with angular momentum L= 1

SPLIT: Basis orbitals for state 2p

SPLIT: PAO cut-off radius determined from an
SPLIT: energy shift=  0.007350 Ry

   izeta = 1
                 lambda =    1.000000
                     rc =    5.658549
                 energy =   -0.381140
                kinetic =    2.399701
    potential(screened) =   -2.780841
       potential(ionic) =   -6.206085

   izeta = 2
                 rmatch =    3.653288
              splitnorm =    0.150000
                 energy =   -0.249149
                kinetic =    3.542762
    potential(screened) =   -3.791911
       potential(ionic) =   -7.581078

POLgen: Perturbative polarization orbital with L=  2

POLgen: Polarization orbital for state 2p

   izeta = 1
                     rc =    5.658549
                 energy =    1.109913
                kinetic =    2.304789
    potential(screened) =   -1.194876
       potential(ionic) =   -4.013592
atom: Total number of Sankey-type orbitals: 13

atm_pop: Valence configuration (for local Pseudopot. screening):
 2s( 2.00)                                                            
 2p( 2.00)                                                            
Vna: chval, zval:    4.00000   4.00000

Vna:  Cut-off radius for the neutral-atom potential:   5.658549
comcore: Pseudo-core radius Rcore=  1.791422

atom: _________________________________________________________________________

prinput: Basis input ----------------------------------------------------------

PAO.BasisType split     

%block ChemicalSpeciesLabel
    1    5 B                       # Species index, atomic number, species label
    2    6 C                       # Species index, atomic number, species label
%endblock ChemicalSpeciesLabel

%block PAO.Basis                 # Define Basis set
B                     2                    # Species label, number of l-shells
 n=2   0   2                         # n, l, Nzeta 
   5.422      4.223   
   1.000      1.000   
 n=2   1   2 P   1                   # n, l, Nzeta, Polarization, NzetaPol
   6.790      4.609   
   1.000      1.000   
C                     2                    # Species label, number of l-shells
 n=2   0   2                         # n, l, Nzeta 
   4.633      3.432   
   1.000      1.000   
 n=2   1   2 P   1                   # n, l, Nzeta, Polarization, NzetaPol
   5.659      3.653   
   1.000      1.000   
%endblock PAO.Basis

prinput: ----------------------------------------------------------------------

coor:   Atomic-coordinates input format  =     Fractional

siesta: Atomic coordinates (Bohr) and species
siesta:     -0.02582   2.59549   0.00000  1        1
siesta:      6.95932  33.51406   0.00000  1        2
siesta:      9.28770  18.72698   0.00000  1        3
siesta:     -4.68258  10.66124   0.00000  1        4
siesta:     -9.33934  18.72698   0.00000  1        5
siesta:     -0.02582  29.48119   0.00000  1        6
siesta:     -0.02582  34.85847   0.00000  1        7
siesta:     -0.02582   5.28395   0.00000  2        8
siesta:     -2.35420  38.89134   0.00000  2        9
siesta:     -2.35420  41.57980   0.00000  2       10
siesta:      2.30256  38.89134   0.00000  2       11
siesta:      2.30256  41.57980   0.00000  2       12
siesta:      4.63094  34.85847   0.00000  2       13
siesta:      4.63094  37.54693   0.00000  2       14
siesta:      6.95932  30.82560   0.00000  2       15
siesta:      9.28770  26.79272   0.00000  2       16
siesta:      9.28770  29.48119   0.00000  2       17
siesta:     -4.68258  34.85847   0.00000  2       18
siesta:     -4.68258  37.54693   0.00000  2       19
siesta:      2.30256   6.62836   0.00000  2       20
siesta:      2.30256   9.31683   0.00000  2       21
siesta:      4.63094  10.66124   0.00000  2       22
siesta:      4.63094  13.34970   0.00000  2       23
siesta:      6.95932  14.69411   0.00000  2       24
siesta:      6.95932  17.38257   0.00000  2       25
siesta:      9.28770  21.41544   0.00000  2       26
siesta:     11.61608  22.75985   0.00000  2       27
siesta:     11.61608  25.44831   0.00000  2       28
siesta:     -2.35420   6.62836   0.00000  2       29
siesta:     -2.35420   9.31683   0.00000  2       30
siesta:     -0.02582  10.66124   0.00000  2       31
siesta:     -0.02582  13.34970   0.00000  2       32
siesta:      2.30256  14.69411   0.00000  2       33
siesta:      2.30256  17.38257   0.00000  2       34
siesta:      4.63094  18.72698   0.00000  2       35
siesta:      4.63094  21.41544   0.00000  2       36
siesta:      6.95932  22.75985   0.00000  2       37
siesta:      6.95932  25.44831   0.00000  2       38
siesta:     -4.68258  13.34970   0.00000  2       39
siesta:     -2.35420  14.69411   0.00000  2       40
siesta:     -2.35420  17.38257   0.00000  2       41
siesta:     -0.02582  18.72698   0.00000  2       42
siesta:     -0.02582  21.41544   0.00000  2       43
siesta:      2.30256  22.75985   0.00000  2       44
siesta:      2.30256  25.44831   0.00000  2       45
siesta:     -7.01096  14.69411   0.00000  2       46
siesta:     -7.01096  17.38257   0.00000  2       47
siesta:     -4.68258  18.72698   0.00000  2       48
siesta:     -4.68258  21.41544   0.00000  2       49
siesta:     -2.35420  22.75985   0.00000  2       50
siesta:     -2.35420  25.44831   0.00000  2       51
siesta:     -9.33934  21.41544   0.00000  2       52
siesta:     -7.01096  22.75985   0.00000  2       53
siesta:     -7.01096  25.44831   0.00000  2       54
siesta:    -11.66772  22.75985   0.00000  2       55
siesta:    -11.66772  25.44831   0.00000  2       56
siesta:     -9.33934  26.79272   0.00000  2       57
siesta:     -9.33934  29.48119   0.00000  2       58
siesta:      4.63094  26.79272   0.00000  2       59
siesta:      4.63094  29.48119   0.00000  2       60
siesta:     -0.02582  26.79272   0.00000  2       61
siesta:     -4.68258  26.79272   0.00000  2       62
siesta:     -4.68258  29.48119   0.00000  2       63
siesta:      2.30256  30.82560   0.00000  2       64
siesta:      2.30256  33.51406   0.00000  2       65
siesta:     -2.35420  30.82560   0.00000  2       66
siesta:     -2.35420  33.51406   0.00000  2       67
siesta:     -7.01096  30.82560   0.00000  2       68
siesta:     -7.01096  33.51406   0.00000  2       69
siesta:     -0.02582  37.54693   0.00000  2       70
siesta:     -0.02582  42.92421   0.00000  2       71
siesta:     -0.02582  45.61267   0.00000  2       72

siesta: System type = slab      

initatomlists: Number of atoms, orbitals, and projectors:     72   936  1152

siesta: ******************** Simulation parameters ****************************
siesta:
siesta: The following are some of the parameters of the simulation.
siesta: A complete list of the parameters used, including default values,
siesta: can be found in file out.fdf
siesta:
redata: Non-Collinear-spin run           =     F
redata: SpinPolarized (Up/Down) run      =     F
redata: Number of spin components        =     1
redata: Long output                      =     F
redata: Number of Atomic Species         =        2
redata: Charge density info will appear in .RHO file
redata: Write Mulliken Pop.              =     NO
redata: Mesh Cutoff                      =   200.0000  Ry
redata: Net charge of the system         =     0.0000 |e|
redata: Max. number of SCF Iter          =      500
redata: SCF convergence failure will abort job
redata: Performing Pulay mixing using    =    10 iterations
redata: Mix DM in first SCF step ?       =     F
redata: Write Pulay info on disk?        =     F
redata: Discard 1st Pulay DM after  kick =     F
redata: New DM Mixing Weight             =     0.0500
redata: New DM Occupancy tolerance       = 0.000000000001
redata: No kicks to SCF
redata: DM Mixing Weight for Kicks       =     0.5000
redata: DM Tolerance for SCF             =     0.000100
redata: Require Energy convergence for SCF =     F
redata: DM Energy tolerance for SCF      =     0.000100 eV
redata: Require Harris convergence for SCF =     F
redata: DM Harris energy tolerance for SCF =     0.000100 eV
redata: Using Saved Data (generic)   =     F
redata: Use continuation files for DM    =     T
redata: Neglect nonoverlap interactions  =     F
redata: Method of Calculation            =     Diagonalization
redata: Divide and Conquer               =     T
redata: Electronic Temperature           =     0.0019  Ry
redata: Fix the spin of the system       =     F
redata: Dynamics option                  =     Verlet MD run
redata: Initial MD time step             =        1
redata:   Final MD time step             =        1
redata: Length of MD time step           =     1.0000  fs
redata: Initial Temperature of MD run    =     0.0000  K
redata: Perform a MD quench              =     F
redata: ***********************************************************************
Total number of electrons:   281.000000
Total ionic charge:   281.000000

* ProcessorY, Blocksize:    2  24

k-point displ. along   1 input, could be:     0.50    0.00
k-point displ. along   2 input, could be:     0.50    0.00
 Kpoints in:          231 . Kpoints trimmed:          231

siesta: k-grid: Number of k-points =   231
siesta: k-grid: Cutoff (effective) =     5.000 Ang
siesta: k-grid: Supercell and displacements
siesta: k-grid:   21   0   0      0.500
siesta: k-grid:    0  21   0      0.500
siesta: k-grid:    0   0   1      0.000
Naive supercell factors:     2    2    2

superc: Internal auxiliary supercell:     2 x     2 x     2  =       8
superc: Number of atoms, orbitals, and projectors:    576   7488   9216

* Maximum dynamic memory allocated =     4 MB

siesta:                 ==============================
                            Begin MD step =      1
                        ==============================

superc: Internal auxiliary supercell:     2 x     2 x     2  =       8
superc: Number of atoms, orbitals, and projectors:    576   7488   9216

outcell: Unit cell vectors (Ang):
       12.804619    7.392750    0.000000
        0.000000   14.785500    0.000000
        0.000000    0.000000   10.000000

outcell: Cell vector modules (Ang)   :   14.785500   14.785500   10.000000
outcell: Cell angles (23,13,12) (deg):     90.0000     90.0000     60.0000
outcell: Cell volume (Ang**3)        :   1893.2269
New_DM. Step:     1
Initializing Density Matrix...

iodm: Reading Density Matrix from files

InitMesh: MESH =   120 x   120 x    90 =     1296000
InitMesh: Mesh cutoff (required, used) =   200.000   223.865 Ry

* Maximum dynamic memory allocated =   211 MB

stepf: Fermi-Dirac step function

siesta: Program's energy decomposition (eV):
siesta: Ebs     =     -4441.085529
siesta: Eions   =     17506.614093
siesta: Ena     =      4534.097536
siesta: Ekin    =      8876.145399
siesta: Enl     =      -920.413186
siesta: DEna    =      -769.441408
siesta: DUscf   =       100.025307
siesta: DUext   =         0.000000
siesta: Exc     =     -4340.879143
siesta: eta*DQ  =         0.000000
siesta: Emadel  =         0.000000
siesta: Emeta   =         0.000000
siesta: Emolmec =         0.000000
siesta: Ekinion =         0.000000
siesta: Eharris =    -10033.139099
siesta: Etot    =    -10027.079587
siesta: FreeEng =    -10027.079587

siesta: iscf   Eharris(eV)      E_KS(eV)   FreeEng(eV)   dDmax  Ef(eV)
siesta:    1   -10033.1391   -10027.0796   -10027.0796  0.3491 -4.6562
timer: Routine,Calls,Time,% = IterSCF        1    4391.812  99.68
elaps: Routine,Calls,Wall,% = IterSCF        1     549.706  99.68
siesta:    2   -10207.1278   -10014.1905   -10014.2648  2.5943 -3.0317
siesta:    3   -10032.7675   -10026.8571   -10026.8961  0.2706 -4.4274
siesta:    4   -10032.3731   -10027.0118   -10027.0398  0.2449 -4.4688
siesta:    5   -10031.9063   -10027.3546   -10027.3864  0.1772 -4.5296
siesta:    6   -10031.8468   -10027.7563   -10027.7931  0.1430 -4.5353
siesta:    7   -10031.7036   -10028.8476   -10028.8820  0.1045 -4.6318
siesta:    8   -10031.6825   -10029.1270   -10029.1759  0.0962 -4.6364
siesta:    9   -10031.6779   -10029.8528   -10029.8983  0.0689 -4.6261
siesta:   10   -10031.6389   -10030.4824   -10030.5253  0.0689 -4.6766
siesta:   11   -10031.6303   -10030.5091   -10030.5690  0.0652 -4.6743
siesta:   12   -10031.6244   -10030.9625   -10031.0220  0.0292 -4.6542
siesta:   13   -10031.6215   -10031.1234   -10031.1774  0.0192 -4.6579
siesta:   14   -10031.6179   -10031.2152   -10031.2710  0.0216 -4.6588
siesta:   15   -10031.6180   -10031.3541   -10031.4105  0.0073 -4.6557
siesta:   16   -10031.6169   -10031.4134   -10031.4685  0.0085 -4.6558
siesta:   17   -10031.6176   -10031.4795   -10031.5351  0.0061 -4.6521
siesta:   18   -10031.6167   -10031.5143   -10031.5689  0.0049 -4.6536
siesta:   19   -10031.6169   -10031.5422   -10031.5974  0.0033 -4.6533
siesta:   20   -10031.6168   -10031.5849   -10031.6399  0.0018 -4.6534
siesta:   21   -10031.6169   -10031.5890   -10031.6441  0.0016 -4.6533
siesta:   22   -10031.6168   -10031.6000   -10031.6550  0.0010 -4.6539
siesta:   23   -10031.6168   -10031.6059   -10031.6609  0.0009 -4.6540
siesta:   24   -10031.6168   -10031.6139   -10031.6689  0.0006 -4.6539
siesta:   25   -10031.6168   -10031.6161   -10031.6712  0.0003 -4.6539
siesta:   26   -10031.6169   -10031.6159   -10031.6709  0.0001 -4.6538
siesta:   27   -10031.6169   -10031.6158   -10031.6708  0.0001 -4.6538
siesta:   28   -10031.6169   -10031.6167   -10031.6717  0.0001 -4.6538

siesta: E_KS(eV) =           -10031.6170

siesta: E_KS - E_eggbox =    -10031.6170

siesta: Atomic forces (eV/Ang):
----------------------------------------
   Tot   -0.230725    0.003365    0.000000
----------------------------------------
   Max  562.561569
   Res  150.740223    sqrt( Sum f_i^2 / 3N )
----------------------------------------
   Max  562.561569    constrained

Stress-tensor-Voigt (kbar):     -719.08    -2640.70       -0.32        0.95        0.00        0.00
(Free)E + p*V (eV/cell)    -8708.1894
Target enthalpy (eV/cell)   -10031.6720

siesta: Stress tensor (static) (eV/Ang**3):
        -0.448808    0.000593    0.000000
         0.000593   -1.648180    0.000000
         0.000000    0.000000   -0.000198

siesta: Pressure (static):       1120.03259274  kBar

siesta: Stress tensor (total) (eV/Ang**3):
        -0.448808    0.000593    0.000000
         0.000593   -1.648180    0.000000
         0.000000    0.000000   -0.000198

siesta: Pressure (total):       1120.03259274  kBar

siesta: Temp_ion =       0.000 K

* Maximum dynamic memory allocated =   227 MB
Computing bands...

siesta: Program's energy decomposition (eV):
siesta: Ebs     =     -4431.535215
siesta: Eions   =     17506.614093
siesta: Ena     =      4534.097536
siesta: Ekin    =      8899.675597
siesta: Enl     =      -963.880334
siesta: DEna    =      -756.679888
siesta: DUscf   =       101.141051
siesta: DUext   =         0.000000
siesta: Exc     =     -4339.356879
siesta: eta*DQ  =         0.000000
siesta: Emadel  =         0.000000
siesta: Emeta   =         0.000000
siesta: Emolmec =         0.000000
siesta: Ekinion =         0.000000
siesta: Eharris =    -10031.616856
siesta: Etot    =    -10031.617010
siesta: FreeEng =    -10031.672006

siesta: Final energy (eV):
siesta:  Band Struct. =   -4431.535215
siesta:       Kinetic =    8899.675597
siesta:       Hartree =   29214.672171
siesta:    Ext. field =       0.000000
siesta:   Exch.-corr. =   -4339.356879
siesta:  Ion-electron =  -67019.033233
siesta:       Ion-ion =   23212.425334
siesta:       Ekinion =       0.000000
siesta:         Total =  -10031.617010

siesta: Atomic forces (eV/Ang):
siesta:      1    0.133010  306.867087    0.000000
siesta:      2   -0.287571    2.246407    0.000000
siesta:      3    1.086033   -1.367492    0.000000
siesta:      4  -27.498819  397.488545    0.000000
siesta:      5   -1.158657   -1.404321    0.000000
siesta:      6   -0.065164 -310.292921    0.000000
siesta:      7    0.199677  113.988989    0.000000
siesta:      8   -1.550718 -123.022794    0.000000
siesta:      9    2.413182  124.855242    0.000000
siesta:     10  -15.419112 -545.442350    0.000000
siesta:     11   -1.712488  127.474600    0.000000
siesta:     12   17.016210 -549.630050    0.000000
siesta:     13   23.987649    7.393858    0.000000
siesta:     14   32.286527 -548.119099    0.000000
siesta:     15    2.956824   -3.408260    0.000000
siesta:     16    2.386250    1.443715    0.000000
siesta:     17   -0.086512    1.354116    0.000000
siesta:     18  -26.435729   -0.835018    0.000000
siesta:     19  -33.580626 -399.606608    0.000000
siesta:     20   22.357099  551.626229    0.000000
siesta:     21   -3.330213 -130.748156    0.000000
siesta:     22   34.894424  549.080736    0.000000
siesta:     23   26.268537   -6.893010    0.000000
siesta:     24   -1.981698   -1.090156    0.000000
siesta:     25   -1.244036   -2.886585    0.000000
siesta:     26    3.221776    1.501863    0.000000
siesta:     27   -0.398238    7.030960    0.000000
siesta:     28   -0.337266   -6.724144    0.000000
siesta:     29  -23.107200  551.295365    0.000000
siesta:     30   -3.781668 -121.678343    0.000000
siesta:     31   -2.235052  551.452594    0.000000
siesta:     32    0.139900 -130.787673    0.000000
siesta:     33   21.553621  556.799645    0.000000
siesta:     34   21.894303   -5.748225    0.000000
siesta:     35   -0.271197    2.880686    0.000000
siesta:     36    0.573439   -0.914083    0.000000
siesta:     37   -0.330985    0.329725    0.000000
siesta:     38   -0.502185   -0.478735    0.000000
siesta:     39  -27.133396   -2.492454    0.000000
siesta:     40  -25.294455  555.943519    0.000000
siesta:     41  -21.135211   -6.298493    0.000000
siesta:     42    0.614964  562.561569    0.000000
siesta:     43   -0.023879    1.965504    0.000000
siesta:     44   -0.719666   -0.256121    0.000000
siesta:     45   -1.215479   -0.496655    0.000000
siesta:     46    2.950053   -1.936672    0.000000
siesta:     47    0.985948   -2.551786    0.000000
siesta:     48    0.130068    2.448695    0.000000
siesta:     49   -0.520148   -0.979501    0.000000
siesta:     50    0.769128   -0.284121    0.000000
siesta:     51    1.194566   -0.513784    0.000000
siesta:     52   -2.859034    1.700641    0.000000
siesta:     53    0.239702    0.243895    0.000000
siesta:     54    0.468997   -0.553283    0.000000
siesta:     55   -0.520265    5.942772    0.000000
siesta:     56    0.482677   -6.152906    0.000000
siesta:     57   -2.305498    1.788866    0.000000
siesta:     58    0.206484    1.377300    0.000000
siesta:     59    0.723021    0.688137    0.000000
siesta:     60   -0.479896   -1.077664    0.000000
siesta:     61   -0.021631   -3.983682    0.000000
siesta:     62   -0.648147    0.782431    0.000000
siesta:     63    0.351018   -1.207787    0.000000
siesta:     64   22.051045    1.270443    0.000000
siesta:     65   16.768323 -554.387752    0.000000
siesta:     66  -21.741752    1.278329    0.000000
siesta:     67  -17.120148 -555.852635    0.000000
siesta:     68   -1.897738   -0.728832    0.000000
siesta:     69    2.843856    2.610271    0.000000
siesta:     70    5.305858 -544.053200    0.000000
siesta:     71   -0.268434  127.326302    0.000000
siesta:     72   -0.464987 -548.150322    0.000000
siesta: ----------------------------------------
siesta:    Tot   -0.230725    0.003365    0.000000

siesta: Stress tensor (static) (eV/Ang**3):
siesta:    -0.448808    0.000593    0.000000
siesta:     0.000593   -1.648180    0.000000
siesta:     0.000000    0.000000   -0.000198

siesta: Cell volume =       1893.226884 Ang**3

siesta: Pressure (static):
siesta:                Solid            Molecule  Units
siesta:           0.00761368          0.11497149  Ry/Bohr**3
siesta:           0.69906180         10.55629124  eV/Ang**3
siesta:        1120.03259274      16913.22597745  kBar
(Free)E+ p_basis*V_orbitals  =       -9998.722714
(Free)Eharris+ p_basis*V_orbitals  =       -9998.722890

siesta: Electric dipole (a.u.)  =    0.000000    0.000000    0.000000
siesta: Electric dipole (Debye) =    0.000000    0.000000    0.000000

* Maximum dynamic memory allocated : Node    0 =   227 MB
* Maximum dynamic memory allocated : Node    1 =    80 MB
* Maximum dynamic memory allocated : Node    2 =    83 MB
* Maximum dynamic memory allocated : Node    3 =   215 MB
* Maximum dynamic memory allocated : Node    4 =   208 MB
* Maximum dynamic memory allocated : Node    5 =    76 MB
* Maximum dynamic memory allocated : Node    6 =    77 MB
* Maximum dynamic memory allocated : Node    7 =   192 MB

* Maximum memory occured during matrixMtoO                    

timer: CPU execution times:
timer:  Routine       Calls   Time/call    Tot.time        %
timer:  siesta            1  121771.233  121771.233   100.00
timer:  Setup             1       4.672       4.672     0.00
timer:  bands             3     268.936     806.808     0.66
timer:  writewave         1       0.043       0.043     0.00
timer:  KSV_init          1       0.006       0.006     0.00
timer:  IterMD            1  120954.087  120954.087    99.33
timer:  hsparse           1       0.394       0.394     0.00
timer:  overlap           1       5.974       5.974     0.00
timer:  IterSCF          28    4312.167  120740.689    99.15
timer:  kinefsm           2       3.106       6.212     0.01
timer:  nlefsm            2      20.505      41.011     0.03
timer:  DHSCF            29     110.345    3199.998     2.63
timer:  DHSCF1            1       0.998       0.998     0.00
timer:  DHSCF2            1      42.860      42.860     0.04
timer:  REORD           234       0.010       2.379     0.00
timer:  POISON           30       2.250      67.504     0.06
timer:  DHSCF3           29     107.486    3117.091     2.56
timer:  rhoofd           29      21.554     625.056     0.51
timer:  cellXC           29       3.465     100.497     0.08
timer:  vmat             29      52.559    1524.212     1.25
timer:  MolMec            2       0.000       0.000     0.00
timer:  diagon           28    4200.383  117610.731    96.58
timer:  c-eigval       6589       6.668   43932.432    36.08
timer:  c-buildHS      6589       0.119     782.599     0.64
timer:  cdiag         13057       6.872   89732.468    73.69
timer:  cdiag1        13057       0.428    5589.789     4.59
timer:  cdiag2        13057       1.909   24929.087    20.47
timer:  cdiag3        13057       3.935   51380.553    42.19
timer:  cdiag4        13057       0.202    2641.450     2.17
timer:  c-eigvec       6468       7.272   47034.566    38.63
timer:  c-buildD       6468       4.238   27414.385    22.51
timer:  DHSCF4            1      37.469      37.469     0.03
timer:  dfscf             1      34.869      34.869     0.03
timer:  overfsm           1       0.446       0.446     0.00
timer:  optical           1       4.974       4.974     0.00
  

elaps: ELAPSED times:
elaps:  Routine       Calls   Time/call    Tot.time        %
elaps:  siesta            1   15239.030   15239.030   100.00
elaps:  Setup             1       0.616       0.616     0.00
elaps:  bands             3      33.669     101.006     0.66
elaps:  writewave         1       0.005       0.005     0.00
elaps:  KSV_init          1       0.001       0.001     0.00
elaps:  IterMD            1   15136.751   15136.751    99.33
elaps:  hsparse           1       0.051       0.051     0.00
elaps:  overlap           1       0.978       0.978     0.01
elaps:  IterSCF          28     539.649   15110.179    99.15
elaps:  kinefsm           2       0.506       1.011     0.01
elaps:  nlefsm            2       2.571       5.142     0.03
elaps:  DHSCF            29      13.972     405.187     2.66
elaps:  DHSCF1            1       0.131       0.131     0.00
elaps:  DHSCF2            1       5.359       5.359     0.04
elaps:  REORD           234       0.001       0.307     0.00
elaps:  POISON           30       0.281       8.442     0.06
elaps:  DHSCF3           29      13.447     389.962     2.56
elaps:  rhoofd           29       5.953     172.649     1.13
elaps:  cellXC           29       0.433      12.558     0.08
elaps:  vmat             29       6.575     190.683     1.25
elaps:  MolMec            2       0.000       0.000     0.00
elaps:  diagon           28     525.675   14718.887    96.59
elaps:  c-eigval       6589       0.834    5497.147    36.07
elaps:  c-buildHS      6589       0.016     106.974     0.70
elaps:  cdiag         13057       0.845   11031.657    72.39
elaps:  cdiag1        13057       0.053     693.744     4.55
elaps:  cdiag2        13057       0.239    3118.905    20.47
elaps:  cdiag3        13057       0.493    6437.985    42.25
elaps:  cdiag4        13057       0.025     328.925     2.16
elaps:  c-eigvec       6468       0.884    5718.576    37.53
elaps:  c-buildD       6468       0.556    3598.920    23.62
elaps:  DHSCF4            1       9.525       9.525     0.06
elaps:  dfscf             1       9.023       9.023     0.06
elaps:  overfsm           1       0.058       0.058     0.00
elaps:  optical           1       0.001       0.001     0.00
  
>> End of run:  28-APR-2016   5:50:42
