Siesta Version:                                        siesta-3.2-pl-3
Architecture  : x86_64-unknown-linux-gnu--unknown
Compiler flags: mpiifort -g -O2 -fPIC -xSSE4.1 -fp-model source -shared-intel 
PARALLEL version

* Running on   12 nodes in parallel
>> Start of run:   5-MAY-2016  13:54:42

                           ***********************       
                           *  WELCOME TO SIESTA  *       
                           ***********************       

reinit: Reading from standard input
************************** Dump of input data file ****************************
#(1) General system descriptors
SystemName            GRP_doping    # Descriptive name of the system
SystemLabel           GRP_doping    # Short name for naming files
%include STRUCT.fdf
%include KPT.fdf
%include BASIS.fdf
#%include TS.fdf # for transiesta calculation
#(4) DFT, Grid, SCF
XC.functional         GGA           # LDA or GGA (default = LDA)
XC.authors            PBE           # CA (Ceperley-Aldr) = PZ
                                    #    (Perdew-Zunger) - LDA - Default
                                    # PW92 (Perdew-Wang-92) - LDA
                                    # PBE (Perdew-Burke-Ernzerhof) - GGA
MeshCutoff            200.000000    Ry      # Default: 50.0 Ry ~ 0.444 Bohr
                                    #         100.0 Ry ~ 0.314 Bohr
MaxSCFIterations      500           # Default: 50
DM.MixingWeight       0.05          # Default: 0.25
DM.NumberPulay        10            # Default: 0
DM.PulayOnFile        F             # SystemLabel.P1, SystemLabel.P2
DM.Tolerance          1.d-4         # Default: 1.d-4
DM.UseSaveDM          .true.        # because of the bug
SCFMustConverge       .true.
NeglNonOverlapInt     F             # Default: F
#(5) Eigenvalue problem: order-N or diagonalization
SolutionMethod        Diagon        # or Transiesta
ElectronicTemperature 300.0 K       # Default: 300.0 K
#(6) Molecular dynamics and relaxations
#MD.TypeOfRun          CG            # Type of dynamics:
#MD.VariableCell       F
#MD.NumCGsteps         0           # 0 for single-point / 100 for gopt
#MD.MaxCGDispl         0.2 Bohr      # Default: 0.2 Bohr
#MD.MaxForceTol        0.02 eV/Ang   # Default: 0.04 eV/Ang
#MD.MaxStressTol       1.0 GPa       # Default: 1.0 GPa
# Geometry Constraints
#%block GeometryConstraints
#	position from 1 to 44
#%endblock GeometryConstraints
BandLinesScale   pi/a
%block BandLines
 1   0.00000000  0.00000000  0.00000000
50   0.00000000  0.07809418  0.00000000
50   0.04509075  0.07809242  0.00000000
20   0.00000000  0.00000000  0.00000000
%endblock BandLines
************************** End of input data file *****************************

reinit: -----------------------------------------------------------------------
reinit: System Name: GRP_doping
reinit: -----------------------------------------------------------------------
reinit: System Label: GRP_doping                                                  
reinit: -----------------------------------------------------------------------

initatom: Reading input for the pseudopotentials and atomic orbitals ----------
 Species number:            1  Label: B Atomic number:           5
 Species number:            2  Label: C Atomic number:           6
Ground state valence configuration:   2s02  2p01
Reading pseudopotential information in formatted form from B.psf

Valence configuration for pseudopotential generation:
2s( 2.00) rc: 1.74
2p( 1.00) rc: 1.74
3d( 0.00) rc: 1.74
4f( 0.00) rc: 1.74
Ground state valence configuration:   2s02  2p02
Reading pseudopotential information in formatted form from C.psf

Valence configuration for pseudopotential generation:
2s( 2.00) rc: 1.54
2p( 2.00) rc: 1.54
3d( 0.00) rc: 1.54
4f( 0.00) rc: 1.54
For B, standard SIESTA heuristics set lmxkb to 3
 (one more than the basis l, including polarization orbitals).
Use PS.lmax or PS.KBprojectors blocks to override.
For C, standard SIESTA heuristics set lmxkb to 3
 (one more than the basis l, including polarization orbitals).
Use PS.lmax or PS.KBprojectors blocks to override.

<basis_specs>
===============================================================================
B                    Z=   5    Mass=  10.810        Charge= 0.17977+309
Lmxo=1 Lmxkb= 3    BasisType=split      Semic=F
L=0  Nsemic=0  Cnfigmx=2
          n=1  nzeta=2  polorb=0
            splnorm:   0.15000    
               vcte:    0.0000    
               rinn:    0.0000    
                rcs:    0.0000      0.0000    
            lambdas:    1.0000      1.0000    
L=1  Nsemic=0  Cnfigmx=2
          n=1  nzeta=2  polorb=1
            splnorm:   0.15000    
               vcte:    0.0000    
               rinn:    0.0000    
                rcs:    0.0000      0.0000    
            lambdas:    1.0000      1.0000    
-------------------------------------------------------------------------------
L=0  Nkbl=1  erefs: 0.17977+309
L=1  Nkbl=1  erefs: 0.17977+309
L=2  Nkbl=1  erefs: 0.17977+309
L=3  Nkbl=1  erefs: 0.17977+309
===============================================================================
</basis_specs>

atom: Called for B                     (Z =   5)

read_vps: Pseudopotential generation method:
read_vps: ATM3      Troullier-Martins                       
Total valence charge:    3.00000

read_vps: Pseudopotential includes a core correction:
read_vps: Pseudo-core for xc-correction

xc_check: Exchange-correlation functional:
xc_check: GGA Perdew, Burke & Ernzerhof 1996
V l=0 = -2*Zval/r beyond r=  1.7165
V l=1 = -2*Zval/r beyond r=  1.7165
V l=2 = -2*Zval/r beyond r=  1.7165
V l=3 = -2*Zval/r beyond r=  1.6951
All V_l potentials equal beyond r=  1.7165
This should be close to max(r_c) in ps generation
All pots = -2*Zval/r beyond r=  1.7165

VLOCAL1: 99.0% of the norm of Vloc inside     14.733 Ry
VLOCAL1: 99.9% of the norm of Vloc inside     33.577 Ry
atom: Maximum radius for 4*pi*r*r*local-pseudopot. charge    2.04484
atom: Maximum radius for r*vlocal+2*Zval:    1.75994
GHOST: No ghost state for L =  0
GHOST: No ghost state for L =  1
GHOST: No ghost state for L =  2
GHOST: No ghost state for L =  3

KBgen: Kleinman-Bylander projectors: 
   l= 0   rc=  1.897051   el= -0.693730   Ekb=  4.595746   kbcos=  0.286105
   l= 1   rc=  1.920920   el= -0.265236   Ekb= -2.350715   kbcos= -0.315747
   l= 2   rc=  2.044840   el=  0.002055   Ekb= -0.690767   kbcos= -0.013822
   l= 3   rc=  2.149707   el=  0.003188   Ekb= -0.315358   kbcos= -0.002055

KBgen: Total number of  Kleinman-Bylander projectors:   16
atom: -------------------------------------------------------------------------

atom: SANKEY-TYPE ORBITALS:
atom: Selected multiple-zeta basis: split     

SPLIT: Orbitals with angular momentum L= 0

SPLIT: Basis orbitals for state 2s

SPLIT: PAO cut-off radius determined from an
SPLIT: energy shift=  0.007350 Ry

   izeta = 1
                 lambda =    1.000000
                     rc =    5.422032
                 energy =   -0.686029
                kinetic =    0.576707
    potential(screened) =   -1.262736
       potential(ionic) =   -3.271094

   izeta = 2
                 rmatch =    4.222573
              splitnorm =    0.150000
                 energy =   -0.602132
                kinetic =    0.858975
    potential(screened) =   -1.461107
       potential(ionic) =   -3.582536

SPLIT: Orbitals with angular momentum L= 1

SPLIT: Basis orbitals for state 2p

SPLIT: PAO cut-off radius determined from an
SPLIT: energy shift=  0.007350 Ry

   izeta = 1
                 lambda =    1.000000
                     rc =    6.790259
                 energy =   -0.258578
                kinetic =    1.481412
    potential(screened) =   -1.739989
       potential(ionic) =   -3.657461

   izeta = 2
                 rmatch =    4.608740
              splitnorm =    0.150000
                 energy =   -0.173757
                kinetic =    2.186690
    potential(screened) =   -2.360447
       potential(ionic) =   -4.464260

POLgen: Perturbative polarization orbital with L=  2

POLgen: Polarization orbital for state 2p

   izeta = 1
                     rc =    6.790259
                 energy =    0.684082
                kinetic =    1.471481
    potential(screened) =   -0.787399
       potential(ionic) =   -2.406985
atom: Total number of Sankey-type orbitals: 13

atm_pop: Valence configuration (for local Pseudopot. screening):
 2s( 2.00)                                                            
 2p( 1.00)                                                            
Vna: chval, zval:    3.00000   3.00000

Vna:  Cut-off radius for the neutral-atom potential:   6.790259
comcore: Pseudo-core radius Rcore=  2.122997

atom: _________________________________________________________________________

<basis_specs>
===============================================================================
C                    Z=   6    Mass=  12.010        Charge= 0.17977+309
Lmxo=1 Lmxkb= 3    BasisType=split      Semic=F
L=0  Nsemic=0  Cnfigmx=2
          n=1  nzeta=2  polorb=0
            splnorm:   0.15000    
               vcte:    0.0000    
               rinn:    0.0000    
                rcs:    0.0000      0.0000    
            lambdas:    1.0000      1.0000    
L=1  Nsemic=0  Cnfigmx=2
          n=1  nzeta=2  polorb=1
            splnorm:   0.15000    
               vcte:    0.0000    
               rinn:    0.0000    
                rcs:    0.0000      0.0000    
            lambdas:    1.0000      1.0000    
-------------------------------------------------------------------------------
L=0  Nkbl=1  erefs: 0.17977+309
L=1  Nkbl=1  erefs: 0.17977+309
L=2  Nkbl=1  erefs: 0.17977+309
L=3  Nkbl=1  erefs: 0.17977+309
===============================================================================
</basis_specs>

atom: Called for C                     (Z =   6)

read_vps: Pseudopotential generation method:
read_vps: ATM3      Troullier-Martins                       
Total valence charge:    4.00000

read_vps: Pseudopotential includes a core correction:
read_vps: Pseudo-core for xc-correction

xc_check: Exchange-correlation functional:
xc_check: GGA Perdew, Burke & Ernzerhof 1996
V l=0 = -2*Zval/r beyond r=  1.5227
V l=1 = -2*Zval/r beyond r=  1.5227
V l=2 = -2*Zval/r beyond r=  1.5227
V l=3 = -2*Zval/r beyond r=  1.5038
All V_l potentials equal beyond r=  1.5227
This should be close to max(r_c) in ps generation
All pots = -2*Zval/r beyond r=  1.5227

VLOCAL1: 99.0% of the norm of Vloc inside     18.722 Ry
VLOCAL1: 99.9% of the norm of Vloc inside     42.668 Ry
atom: Maximum radius for 4*pi*r*r*local-pseudopot. charge    1.83678
atom: Maximum radius for r*vlocal+2*Zval:    1.58088
GHOST: No ghost state for L =  0
GHOST: No ghost state for L =  1
GHOST: No ghost state for L =  2
GHOST: No ghost state for L =  3

KBgen: Kleinman-Bylander projectors: 
   l= 0   rc=  1.704034   el= -1.009801   Ekb=  5.335044   kbcos=  0.316824
   l= 1   rc=  1.704034   el= -0.388707   Ekb= -3.785862   kbcos= -0.366464
   l= 2   rc=  1.791422   el=  0.001971   Ekb= -0.970471   kbcos= -0.009212
   l= 3   rc=  1.859892   el=  0.003065   Ekb= -0.399525   kbcos= -0.001223

KBgen: Total number of  Kleinman-Bylander projectors:   16
atom: -------------------------------------------------------------------------

atom: SANKEY-TYPE ORBITALS:
atom: Selected multiple-zeta basis: split     

SPLIT: Orbitals with angular momentum L= 0

SPLIT: Basis orbitals for state 2s

SPLIT: PAO cut-off radius determined from an
SPLIT: energy shift=  0.007350 Ry

   izeta = 1
                 lambda =    1.000000
                     rc =    4.632753
                 energy =   -1.002270
                kinetic =    0.855760
    potential(screened) =   -1.858031
       potential(ionic) =   -5.417575

   izeta = 2
                 rmatch =    3.431921
              splitnorm =    0.150000
                 energy =   -0.867111
                kinetic =    1.300804
    potential(screened) =   -2.167915
       potential(ionic) =   -5.962684

SPLIT: Orbitals with angular momentum L= 1

SPLIT: Basis orbitals for state 2p

SPLIT: PAO cut-off radius determined from an
SPLIT: energy shift=  0.007350 Ry

   izeta = 1
                 lambda =    1.000000
                     rc =    5.658549
                 energy =   -0.381140
                kinetic =    2.399701
    potential(screened) =   -2.780841
       potential(ionic) =   -6.206085

   izeta = 2
                 rmatch =    3.653288
              splitnorm =    0.150000
                 energy =   -0.249149
                kinetic =    3.542762
    potential(screened) =   -3.791911
       potential(ionic) =   -7.581078

POLgen: Perturbative polarization orbital with L=  2

POLgen: Polarization orbital for state 2p

   izeta = 1
                     rc =    5.658549
                 energy =    1.109913
                kinetic =    2.304789
    potential(screened) =   -1.194876
       potential(ionic) =   -4.013592
atom: Total number of Sankey-type orbitals: 13

atm_pop: Valence configuration (for local Pseudopot. screening):
 2s( 2.00)                                                            
 2p( 2.00)                                                            
Vna: chval, zval:    4.00000   4.00000

Vna:  Cut-off radius for the neutral-atom potential:   5.658549
comcore: Pseudo-core radius Rcore=  1.791422

atom: _________________________________________________________________________

prinput: Basis input ----------------------------------------------------------

PAO.BasisType split     

%block ChemicalSpeciesLabel
    1    5 B                       # Species index, atomic number, species label
    2    6 C                       # Species index, atomic number, species label
%endblock ChemicalSpeciesLabel

%block PAO.Basis                 # Define Basis set
B                     2                    # Species label, number of l-shells
 n=2   0   2                         # n, l, Nzeta 
   5.422      4.223   
   1.000      1.000   
 n=2   1   2 P   1                   # n, l, Nzeta, Polarization, NzetaPol
   6.790      4.609   
   1.000      1.000   
C                     2                    # Species label, number of l-shells
 n=2   0   2                         # n, l, Nzeta 
   4.633      3.432   
   1.000      1.000   
 n=2   1   2 P   1                   # n, l, Nzeta, Polarization, NzetaPol
   5.659      3.653   
   1.000      1.000   
%endblock PAO.Basis

prinput: ----------------------------------------------------------------------

coor:   Atomic-coordinates input format  =     Fractional

siesta: Atomic coordinates (Bohr) and species
siesta:      2.30256  41.57980   0.00000  1        1
siesta:      4.63094  34.85847   0.00000  1        2
siesta:      9.28770  29.48119   0.00000  1        3
siesta:     -0.02582  10.66124   0.00000  1        4
siesta:      2.30256  17.38257   0.00000  1        5
siesta:      6.95932  22.75985   0.00000  1        6
siesta:     -4.68258  10.66124   0.00000  1        7
siesta:     -4.68258  18.72698   0.00000  1        8
siesta:     -9.33934  18.72698   0.00000  1        9
siesta:     -7.01096  25.44831   0.00000  1       10
siesta:     -0.02582  26.79272   0.00000  1       11
siesta:     -2.35420  33.51406   0.00000  1       12
siesta:     -0.02582   2.59549   0.00000  2       13
siesta:     -0.02582   5.28395   0.00000  2       14
siesta:     -2.35420  38.89134   0.00000  2       15
siesta:     -2.35420  41.57980   0.00000  2       16
siesta:      2.30256  38.89134   0.00000  2       17
siesta:      4.63094  37.54693   0.00000  2       18
siesta:      6.95932  30.82560   0.00000  2       19
siesta:      6.95932  33.51406   0.00000  2       20
siesta:      9.28770  26.79272   0.00000  2       21
siesta:     -4.68258  34.85847   0.00000  2       22
siesta:     -4.68258  37.54693   0.00000  2       23
siesta:      2.30256   6.62836   0.00000  2       24
siesta:      2.30256   9.31683   0.00000  2       25
siesta:      4.63094  10.66124   0.00000  2       26
siesta:      4.63094  13.34970   0.00000  2       27
siesta:      6.95932  14.69411   0.00000  2       28
siesta:      6.95932  17.38257   0.00000  2       29
siesta:      9.28770  18.72698   0.00000  2       30
siesta:      9.28770  21.41544   0.00000  2       31
siesta:     11.61608  22.75985   0.00000  2       32
siesta:     11.61608  25.44831   0.00000  2       33
siesta:     -2.35420   6.62836   0.00000  2       34
siesta:     -2.35420   9.31683   0.00000  2       35
siesta:     -0.02582  13.34970   0.00000  2       36
siesta:      2.30256  14.69411   0.00000  2       37
siesta:      4.63094  18.72698   0.00000  2       38
siesta:      4.63094  21.41544   0.00000  2       39
siesta:      6.95932  25.44831   0.00000  2       40
siesta:     -4.68258  13.34970   0.00000  2       41
siesta:     -2.35420  14.69411   0.00000  2       42
siesta:     -2.35420  17.38257   0.00000  2       43
siesta:     -0.02582  18.72698   0.00000  2       44
siesta:     -0.02582  21.41544   0.00000  2       45
siesta:      2.30256  22.75985   0.00000  2       46
siesta:      2.30256  25.44831   0.00000  2       47
siesta:     -7.01096  14.69411   0.00000  2       48
siesta:     -7.01096  17.38257   0.00000  2       49
siesta:     -4.68258  21.41544   0.00000  2       50
siesta:     -2.35420  22.75985   0.00000  2       51
siesta:     -2.35420  25.44831   0.00000  2       52
siesta:     -9.33934  21.41544   0.00000  2       53
siesta:     -7.01096  22.75985   0.00000  2       54
siesta:    -11.66772  22.75985   0.00000  2       55
siesta:    -11.66772  25.44831   0.00000  2       56
siesta:     -9.33934  26.79272   0.00000  2       57
siesta:     -9.33934  29.48119   0.00000  2       58
siesta:      4.63094  26.79272   0.00000  2       59
siesta:      4.63094  29.48119   0.00000  2       60
siesta:     -0.02582  29.48119   0.00000  2       61
siesta:     -4.68258  26.79272   0.00000  2       62
siesta:     -4.68258  29.48119   0.00000  2       63
siesta:      2.30256  30.82560   0.00000  2       64
siesta:      2.30256  33.51406   0.00000  2       65
siesta:     -2.35420  30.82560   0.00000  2       66
siesta:     -7.01096  30.82560   0.00000  2       67
siesta:     -7.01096  33.51406   0.00000  2       68
siesta:     -0.02582  34.85847   0.00000  2       69
siesta:     -0.02582  37.54693   0.00000  2       70
siesta:     -0.02582  42.92421   0.00000  2       71
siesta:     -0.02582  45.61267   0.00000  2       72

siesta: System type = slab      

initatomlists: Number of atoms, orbitals, and projectors:     72   936  1152

siesta: ******************** Simulation parameters ****************************
siesta:
siesta: The following are some of the parameters of the simulation.
siesta: A complete list of the parameters used, including default values,
siesta: can be found in file out.fdf
siesta:
redata: Non-Collinear-spin run           =     F
redata: SpinPolarized (Up/Down) run      =     F
redata: Number of spin components        =     1
redata: Long output                      =     F
redata: Number of Atomic Species         =        2
redata: Charge density info will appear in .RHO file
redata: Write Mulliken Pop.              =     NO
redata: Mesh Cutoff                      =   200.0000  Ry
redata: Net charge of the system         =     0.0000 |e|
redata: Max. number of SCF Iter          =      500
redata: SCF convergence failure will abort job
redata: Performing Pulay mixing using    =    10 iterations
redata: Mix DM in first SCF step ?       =     F
redata: Write Pulay info on disk?        =     F
redata: Discard 1st Pulay DM after  kick =     F
redata: New DM Mixing Weight             =     0.0500
redata: New DM Occupancy tolerance       = 0.000000000001
redata: No kicks to SCF
redata: DM Mixing Weight for Kicks       =     0.5000
redata: DM Tolerance for SCF             =     0.000100
redata: Require Energy convergence for SCF =     F
redata: DM Energy tolerance for SCF      =     0.000100 eV
redata: Require Harris convergence for SCF =     F
redata: DM Harris energy tolerance for SCF =     0.000100 eV
redata: Using Saved Data (generic)   =     F
redata: Use continuation files for DM    =     T
redata: Neglect nonoverlap interactions  =     F
redata: Method of Calculation            =     Diagonalization
redata: Divide and Conquer               =     T
redata: Electronic Temperature           =     0.0019  Ry
redata: Fix the spin of the system       =     F
redata: Dynamics option                  =     Verlet MD run
redata: Initial MD time step             =        1
redata:   Final MD time step             =        1
redata: Length of MD time step           =     1.0000  fs
redata: Initial Temperature of MD run    =     0.0000  K
redata: Perform a MD quench              =     F
redata: ***********************************************************************
Total number of electrons:   276.000000
Total ionic charge:   276.000000

* ProcessorY, Blocksize:    3  24

k-point displ. along   1 input, could be:     0.50    0.00
k-point displ. along   2 input, could be:     0.50    0.00
 Kpoints in:          231 . Kpoints trimmed:          231

siesta: k-grid: Number of k-points =   231
siesta: k-grid: Cutoff (effective) =     5.000 Ang
siesta: k-grid: Supercell and displacements
siesta: k-grid:   21   0   0      0.500
siesta: k-grid:    0  21   0      0.500
siesta: k-grid:    0   0   1      0.000
Naive supercell factors:     2    2    2

superc: Internal auxiliary supercell:     2 x     2 x     2  =       8
superc: Number of atoms, orbitals, and projectors:    576   7488   9216

* Maximum dynamic memory allocated =     4 MB

siesta:                 ==============================
                            Begin MD step =      1
                        ==============================

superc: Internal auxiliary supercell:     2 x     2 x     2  =       8
superc: Number of atoms, orbitals, and projectors:    576   7488   9216

outcell: Unit cell vectors (Ang):
       12.804619    7.392750    0.000000
        0.000000   14.785500    0.000000
        0.000000    0.000000   10.000000

outcell: Cell vector modules (Ang)   :   14.785500   14.785500   10.000000
outcell: Cell angles (23,13,12) (deg):     90.0000     90.0000     60.0000
outcell: Cell volume (Ang**3)        :   1893.2269
New_DM. Step:     1
Initializing Density Matrix...

InitMesh: MESH =   120 x   120 x    90 =     1296000
InitMesh: Mesh cutoff (required, used) =   200.000   223.865 Ry

* Maximum dynamic memory allocated =   153 MB

stepf: Fermi-Dirac step function

siesta: Program's energy decomposition (eV):
siesta: Ebs     =     -5662.590663
siesta: Eions   =     16866.330537
siesta: Ena     =      4412.214978
siesta: Ekin    =      5745.320513
siesta: Enl     =       728.459028
siesta: DEna    =        -0.000011
siesta: DUscf   =         0.000000
siesta: DUext   =         0.000000
siesta: Exc     =     -4182.069602
siesta: eta*DQ  =         0.000000
siesta: Emadel  =         0.000000
siesta: Emeta   =         0.000000
siesta: Emolmec =         0.000000
siesta: Ekinion =         0.000000
siesta: Eharris =     -9901.338063
siesta: Etot    =    -10162.405632
siesta: FreeEng =    -10162.405632

siesta: iscf   Eharris(eV)      E_KS(eV)   FreeEng(eV)   dDmax  Ef(eV)
siesta:    1    -9901.3381   -10162.4056   -10162.4056  6.8680 -8.1565
timer: Routine,Calls,Time,% = IterSCF        1    3056.092  99.59
elaps: Routine,Calls,Wall,% = IterSCF        1     255.280  99.59
siesta:    2   -14173.7974    -9208.1525    -9208.1996 15.2365 -3.5960
siesta:    3    -9908.9827    -9981.3278    -9981.3489  2.3608 -5.2382
siesta:    4    -9841.2456    -9916.0200    -9916.0262  1.4881 -5.3190
siesta:    5    -9777.0989    -9825.4550    -9825.4566  1.0567 -5.0850
siesta:    6    -9770.3145    -9801.3434    -9801.3461  0.7434 -5.0170
siesta:    7    -9767.1351    -9789.2813    -9789.3262  0.9698 -5.0235
siesta:    8    -9758.9461    -9772.3088    -9772.3410  0.5491 -4.8885
siesta:    9    -9765.7732    -9751.9675    -9751.9806  0.6055 -4.7803
siesta:   10    -9762.8384    -9749.4343    -9749.5030  0.5509 -4.7256
siesta:   11    -9758.1097    -9744.5569    -9744.6245  0.2872 -4.7206
siesta:   12    -9758.4293    -9737.0427    -9737.0683  0.2710 -4.8212
siesta:   13    -9757.9150    -9736.6086    -9736.6095  0.2652 -4.8320
siesta:   14    -9756.7702    -9742.7220    -9742.7239  0.1887 -4.8683
siesta:   15    -9756.4645    -9743.3756    -9743.4199  0.1824 -4.9087
siesta:   16    -9756.2284    -9744.8404    -9744.8920  0.1753 -4.9253
siesta:   17    -9756.0689    -9748.6146    -9748.6595  0.1495 -4.9917
siesta:   18    -9755.8845    -9752.9781    -9753.0268  0.1068 -4.9966
siesta:   19    -9755.8911    -9753.2839    -9753.3392  0.1060 -4.9566
siesta:   20    -9755.8772    -9754.3199    -9754.3591  0.0831 -4.9563
siesta:   21    -9755.8416    -9756.9535    -9756.9953  0.0364 -4.9590
siesta:   22    -9755.8287    -9756.3753    -9756.4296  0.0302 -4.9525
siesta:   23    -9755.8188    -9756.4831    -9756.5346  0.0215 -4.9685
siesta:   24    -9755.8183    -9756.0868    -9756.1388  0.0225 -4.9646
siesta:   25    -9755.8190    -9756.0001    -9756.0541  0.0191 -4.9494
siesta:   26    -9755.8120    -9756.4238    -9756.4728  0.0108 -4.9473
siesta:   27    -9755.8128    -9756.2567    -9756.3104  0.0077 -4.9443
siesta:   28    -9755.8118    -9756.2065    -9756.2584  0.0052 -4.9479
siesta:   29    -9755.8122    -9756.0004    -9756.0528  0.0032 -4.9487
siesta:   30    -9755.8120    -9756.0024    -9756.0544  0.0013 -4.9500
siesta:   31    -9755.8120    -9755.9206    -9755.9728  0.0009 -4.9495
siesta:   32    -9755.8119    -9755.8941    -9755.9463  0.0007 -4.9493
siesta:   33    -9755.8119    -9755.8433    -9755.8956  0.0006 -4.9488
siesta:   34    -9755.8119    -9755.8231    -9755.8753  0.0006 -4.9486
siesta:   35    -9755.8119    -9755.8212    -9755.8734  0.0004 -4.9486
siesta:   36    -9755.8119    -9755.8222    -9755.8743  0.0003 -4.9488
siesta:   37    -9755.8119    -9755.8132    -9755.8654  0.0002 -4.9489
siesta:   38    -9755.8119    -9755.8110    -9755.8632  0.0001 -4.9489
siesta:   39    -9755.8119    -9755.8126    -9755.8648  0.0001 -4.9489

siesta: E_KS(eV) =            -9755.8150

siesta: E_KS - E_eggbox =     -9755.8150

siesta: Atomic forces (eV/Ang):
----------------------------------------
   Tot   -0.079203   -0.109477    0.000000
----------------------------------------
   Max  560.478889
   Res  143.711858    sqrt( Sum f_i^2 / 3N )
----------------------------------------
   Max  560.478889    constrained

Stress-tensor-Voigt (kbar):     -750.26    -2570.41       -0.42       -0.55        0.00        0.00
(Free)E + p*V (eV/cell)    -8447.7481
Target enthalpy (eV/cell)    -9755.8672

siesta: Stress tensor (static) (eV/Ang**3):
        -0.468273   -0.000341    0.000000
        -0.000341   -1.604304    0.000000
         0.000000    0.000000   -0.000263

siesta: Pressure (static):       1107.03086232  kBar

siesta: Stress tensor (total) (eV/Ang**3):
        -0.468273   -0.000341    0.000000
        -0.000341   -1.604304    0.000000
         0.000000    0.000000   -0.000263

siesta: Pressure (total):       1107.03086232  kBar

siesta: Temp_ion =       0.000 K

* Maximum dynamic memory allocated =   166 MB
Computing bands...

siesta: Program's energy decomposition (eV):
siesta: Ebs     =     -4344.211569
siesta: Eions   =     16866.330537
siesta: Ena     =      4412.214978
siesta: Ekin    =      8623.888834
siesta: Enl     =      -920.108846
siesta: DEna    =      -757.549721
siesta: DUscf   =       101.033021
siesta: DUext   =         0.000000
siesta: Exc     =     -4348.962716
siesta: eta*DQ  =         0.000000
siesta: Emadel  =         0.000000
siesta: Emeta   =         0.000000
siesta: Emolmec =         0.000000
siesta: Ekinion =         0.000000
siesta: Eharris =     -9755.811887
siesta: Etot    =     -9755.814987
siesta: FreeEng =     -9755.867200

siesta: Final energy (eV):
siesta:  Band Struct. =   -4344.211569
siesta:       Kinetic =    8623.888834
siesta:       Hartree =   28022.484595
siesta:    Ext. field =       0.000000
siesta:   Exch.-corr. =   -4348.962716
siesta:  Ion-electron =  -64386.366297
siesta:       Ion-ion =   22333.140597
siesta:       Ekinion =       0.000000
siesta:         Total =   -9755.814987

siesta: Atomic forces (eV/Ang):
siesta:      1    8.241031 -403.349808    0.000000
siesta:      2   21.796204    1.846712    0.000000
siesta:      3    0.496795    0.949419    0.000000
siesta:      4    4.623310  392.579605    0.000000
siesta:      5   19.725057   -1.630098    0.000000
siesta:      6   -0.692170    0.711749    0.000000
siesta:      7  -28.472957  402.177377    0.000000
siesta:      8    0.727804   -0.096945    0.000000
siesta:      9   -0.053600   -1.184150    0.000000
siesta:     10    0.357998   -0.165863    0.000000
siesta:     11    0.278172   -2.055734    0.000000
siesta:     12  -27.529025 -405.640971    0.000000
siesta:     13    1.560935  550.739060    0.000000
siesta:     14   -0.406808 -123.719482    0.000000
siesta:     15   -3.576951  120.610346    0.000000
siesta:     16  -16.004106 -545.702188    0.000000
siesta:     17    7.594449  122.561100    0.000000
siesta:     18   31.032442 -549.143132    0.000000
siesta:     19   -0.756678    2.417838    0.000000
siesta:     20   -0.261744    0.478384    0.000000
siesta:     21    2.789658   -1.276673    0.000000
siesta:     22  -23.851551   -4.945370    0.000000
siesta:     23  -31.739858 -402.736135    0.000000
siesta:     24    7.421044  541.939986    0.000000
siesta:     25   -5.565176 -116.749907    0.000000
siesta:     26   33.834190  555.048822    0.000000
siesta:     27   27.036247   -0.498024    0.000000
siesta:     28   -2.131788   -2.367092    0.000000
siesta:     29    2.699921   -0.611367    0.000000
siesta:     30   -1.500829   -0.454450    0.000000
siesta:     31    6.639754   -3.960589    0.000000
siesta:     32   -0.673231    6.437780    0.000000
siesta:     33    0.035207   -6.211477    0.000000
siesta:     34  -13.599771  401.673235    0.000000
siesta:     35   -0.888783 -108.440467    0.000000
siesta:     36    1.397788 -125.656417    0.000000
siesta:     37   28.577844  403.569419    0.000000
siesta:     38   -0.186648    2.173741    0.000000
siesta:     39   -2.146795   -1.758552    0.000000
siesta:     40   -0.209015    3.068869    0.000000
siesta:     41  -26.833584   -0.297558    0.000000
siesta:     42  -31.984375  552.824915    0.000000
siesta:     43  -19.102870   -6.582560    0.000000
siesta:     44    1.496480  560.478889    0.000000
siesta:     45   -0.184478    1.489811    0.000000
siesta:     46   -0.566502   -0.804982    0.000000
siesta:     47    1.580726   -0.895733    0.000000
siesta:     48    3.380273   -1.855619    0.000000
siesta:     49   -3.634661   -5.117322    0.000000
siesta:     50   -0.557847    3.709068    0.000000
siesta:     51   -0.095104   -0.049095    0.000000
siesta:     52   -1.497826   -0.599591    0.000000
siesta:     53   -3.842410    1.770379    0.000000
siesta:     54    1.071334   -2.679785    0.000000
siesta:     55    0.474763    5.328836    0.000000
siesta:     56    0.764215   -5.628563    0.000000
siesta:     57   -6.621324    3.655494    0.000000
siesta:     58    1.456495    0.581668    0.000000
siesta:     59    0.828442   -0.165287    0.000000
siesta:     60   -0.114377   -1.743866    0.000000
siesta:     61   -1.787715 -560.268074    0.000000
siesta:     62    2.306392    1.533722    0.000000
siesta:     63    1.223240   -2.376416    0.000000
siesta:     64   20.543765    6.662944    0.000000
siesta:     65   36.359288 -551.754090    0.000000
siesta:     66  -21.122339    4.290581    0.000000
siesta:     67   -1.981829    0.350920    0.000000
siesta:     68    2.401579    2.696728    0.000000
siesta:     69   -6.652193  119.744302    0.000000
siesta:     70   -0.712772 -398.930723    0.000000
siesta:     71    7.930454  122.610810    0.000000
siesta:     72   -1.222806 -548.717829    0.000000
siesta: ----------------------------------------
siesta:    Tot   -0.079203   -0.109477    0.000000

siesta: Stress tensor (static) (eV/Ang**3):
siesta:    -0.468273   -0.000341    0.000000
siesta:    -0.000341   -1.604304    0.000000
siesta:     0.000000    0.000000   -0.000263

siesta: Cell volume =       1893.226884 Ang**3

siesta: Pressure (static):
siesta:                Solid            Molecule  Units
siesta:           0.00752529          0.10993984  Ry/Bohr**3
siesta:           0.69094685         10.09430250  eV/Ang**3
siesta:        1107.03086232      16173.03042072  kBar
(Free)E+ p_basis*V_orbitals  =       -9721.338141
(Free)Eharris+ p_basis*V_orbitals  =       -9721.337410

siesta: Electric dipole (a.u.)  =    0.000000    0.000000    0.000000
siesta: Electric dipole (Debye) =    0.000000    0.000000    0.000000

* Maximum dynamic memory allocated : Node    0 =   166 MB
* Maximum dynamic memory allocated : Node    1 =    66 MB
* Maximum dynamic memory allocated : Node    2 =    67 MB
* Maximum dynamic memory allocated : Node    3 =   152 MB
* Maximum dynamic memory allocated : Node    4 =   162 MB
* Maximum dynamic memory allocated : Node    5 =    59 MB
* Maximum dynamic memory allocated : Node    6 =    62 MB
* Maximum dynamic memory allocated : Node    7 =   154 MB
* Maximum dynamic memory allocated : Node    8 =   148 MB
* Maximum dynamic memory allocated : Node    9 =    59 MB
* Maximum dynamic memory allocated : Node   10 =    61 MB
* Maximum dynamic memory allocated : Node   11 =   141 MB

* Maximum memory occured during matrixMtoO                    

timer: CPU execution times:
timer:  Routine       Calls   Time/call    Tot.time        %
timer:  siesta            1  115710.842  115710.842   100.00
timer:  Setup             1       3.348       3.348     0.00
timer:  bands             3     226.302     678.905     0.59
timer:  writewave         1       0.023       0.023     0.00
timer:  KSV_init          1       0.004       0.004     0.00
timer:  IterMD            1  115021.638  115021.638    99.40
timer:  hsparse           1       0.280       0.280     0.00
timer:  overlap           1       6.743       6.743     0.01
timer:  IterSCF          39    2945.398  114870.531    99.27
timer:  kinefsm           2       3.434       6.868     0.01
timer:  nlefsm            2      19.994      39.987     0.03
timer:  DHSCF            40      76.712    3068.482     2.65
timer:  DHSCF1            1       1.188       1.188     0.00
timer:  DHSCF2            1      32.453      32.453     0.03
timer:  REORD           322       0.002       0.787     0.00
timer:  POISON           41       0.451      18.477     0.02
timer:  DHSCF3           40      75.197    3007.871     2.60
timer:  rhoofd           40      16.218     648.724     0.56
timer:  cellXC           40       2.488      99.527     0.09
timer:  vmat             40      35.603    1424.101     1.23
timer:  MolMec            2       0.000       0.000     0.00
timer:  diagon           39    2867.507  111832.792    96.65
timer:  c-eigval       9130       5.589   51025.304    44.10
timer:  c-buildHS      9130       0.036     325.801     0.28
timer:  cdiag         18139       5.690  103211.147    89.20
timer:  cdiag1        18139       0.261    4739.058     4.10
timer:  cdiag2        18139       1.839   33363.597    28.83
timer:  cdiag3        18139       3.375   61223.011    52.91
timer:  cdiag4        18139       0.087    1584.300     1.37
timer:  c-eigvec       9009       5.859   52784.715    45.62
timer:  c-buildD       9009       0.961    8653.706     7.48
timer:  DHSCF4            1      26.695      26.695     0.02
timer:  dfscf             1      24.617      24.617     0.02
timer:  overfsm           1       0.317       0.317     0.00
timer:  optical           1       6.344       6.344     0.01
  

elaps: ELAPSED times:
elaps:  Routine       Calls   Time/call    Tot.time        %
elaps:  siesta            1    9665.268    9665.268   100.00
elaps:  Setup             1       0.280       0.280     0.00
elaps:  bands             3      18.918      56.755     0.59
elaps:  writewave         1       0.002       0.002     0.00
elaps:  KSV_init          1       0.000       0.000     0.00
elaps:  IterMD            1    9607.699    9607.699    99.40
elaps:  hsparse           1       0.028       0.028     0.00
elaps:  overlap           1       0.717       0.717     0.01
elaps:  IterSCF          39     246.028    9595.078    99.27
elaps:  kinefsm           2       0.369       0.739     0.01
elaps:  nlefsm            2       1.805       3.610     0.04
elaps:  DHSCF            40       6.462     258.474     2.67
elaps:  DHSCF1            1       0.101       0.101     0.00
elaps:  DHSCF2            1       2.709       2.709     0.03
elaps:  REORD           322       0.000       0.097     0.00
elaps:  POISON           41       0.038       1.556     0.02
elaps:  DHSCF3           40       6.282     251.283     2.60
elaps:  rhoofd           40       2.854     114.175     1.18
elaps:  cellXC           40       0.207       8.295     0.09
elaps:  vmat             40       2.975     118.985     1.23
elaps:  MolMec            2       0.000       0.000     0.00
elaps:  diagon           39     239.529    9341.636    96.65
elaps:  c-eigval       9130       0.467    4262.077    44.10
elaps:  c-buildHS      9130       0.004      35.370     0.37
elaps:  cdiag         18139       0.470    8522.729    88.18
elaps:  cdiag1        18139       0.021     388.047     4.01
elaps:  cdiag2        18139       0.154    2789.335    28.86
elaps:  cdiag3        18139       0.282    5121.278    52.99
elaps:  cdiag4        18139       0.007     128.018     1.32
elaps:  c-eigvec       9009       0.480    4325.861    44.76
elaps:  c-buildD       9009       0.089     805.971     8.34
elaps:  DHSCF4            1       4.339       4.339     0.04
elaps:  dfscf             1       4.083       4.083     0.04
elaps:  overfsm           1       0.035       0.035     0.00
elaps:  optical           1       0.000       0.000     0.00
  
>> End of run:   5-MAY-2016  16:35:47
