Siesta Version:                                        siesta-3.2-pl-3
Architecture  : x86_64-unknown-linux-gnu--unknown
Compiler flags: mpiifort -g -O2 -fPIC -xSSE4.1 -fp-model source -shared-intel 
PARALLEL version

* Running on    8 nodes in parallel
>> Start of run:  21-APR-2016  15:31:30

                           ***********************       
                           *  WELCOME TO SIESTA  *       
                           ***********************       

reinit: Reading from standard input
************************** Dump of input data file ****************************
#(1) General system descriptors
SystemName            GRP_doping    # Descriptive name of the system
SystemLabel           GRP_doping    # Short name for naming files
%include STRUCT.fdf
%include KPT.fdf
%include BASIS.fdf
#%include TS.fdf # for transiesta calculation
#(4) DFT, Grid, SCF
XC.functional         GGA           # LDA or GGA (default = LDA)
XC.authors            PBE           # CA (Ceperley-Aldr) = PZ
                                    #    (Perdew-Zunger) - LDA - Default
                                    # PW92 (Perdew-Wang-92) - LDA
                                    # PBE (Perdew-Burke-Ernzerhof) - GGA
MeshCutoff            200.000000    Ry      # Default: 50.0 Ry ~ 0.444 Bohr
                                    #         100.0 Ry ~ 0.314 Bohr
MaxSCFIterations      500           # Default: 50
DM.MixingWeight       0.05          # Default: 0.25
DM.NumberPulay        10            # Default: 0
DM.PulayOnFile        F             # SystemLabel.P1, SystemLabel.P2
DM.Tolerance          1.d-4         # Default: 1.d-4
DM.UseSaveDM          .true.        # because of the bug
SCFMustConverge       .true.
NeglNonOverlapInt     F             # Default: F
#(5) Eigenvalue problem: order-N or diagonalization
SolutionMethod        Diagon        # or Transiesta
ElectronicTemperature 300.0 K       # Default: 300.0 K
#(6) Molecular dynamics and relaxations
#MD.TypeOfRun          CG            # Type of dynamics:
#MD.VariableCell       F
#MD.NumCGsteps         0           # 0 for single-point / 100 for gopt
#MD.MaxCGDispl         0.2 Bohr      # Default: 0.2 Bohr
#MD.MaxForceTol        0.02 eV/Ang   # Default: 0.04 eV/Ang
#MD.MaxStressTol       1.0 GPa       # Default: 1.0 GPa
# Geometry Constraints
#%block GeometryConstraints
#	position from 1 to 44
#%endblock GeometryConstraints
BandLinesScale   pi/a
%block BandLines
 1   0.00000000  0.00000000  0.00000000
50   0.00000000  0.07809418  0.00000000
50   0.04509075  0.07809242  0.00000000
20   0.00000000  0.00000000  0.00000000
%endblock BandLines
************************** End of input data file *****************************

reinit: -----------------------------------------------------------------------
reinit: System Name: GRP_doping
reinit: -----------------------------------------------------------------------
reinit: System Label: GRP_doping                                                  
reinit: -----------------------------------------------------------------------

initatom: Reading input for the pseudopotentials and atomic orbitals ----------
 Species number:            1  Label: B Atomic number:           5
 Species number:            2  Label: C Atomic number:           6
Ground state valence configuration:   2s02  2p01
Reading pseudopotential information in formatted form from B.psf

Valence configuration for pseudopotential generation:
2s( 2.00) rc: 1.74
2p( 1.00) rc: 1.74
3d( 0.00) rc: 1.74
4f( 0.00) rc: 1.74
Ground state valence configuration:   2s02  2p02
Reading pseudopotential information in formatted form from C.psf

Valence configuration for pseudopotential generation:
2s( 2.00) rc: 1.54
2p( 2.00) rc: 1.54
3d( 0.00) rc: 1.54
4f( 0.00) rc: 1.54
For B, standard SIESTA heuristics set lmxkb to 3
 (one more than the basis l, including polarization orbitals).
Use PS.lmax or PS.KBprojectors blocks to override.
For C, standard SIESTA heuristics set lmxkb to 3
 (one more than the basis l, including polarization orbitals).
Use PS.lmax or PS.KBprojectors blocks to override.

<basis_specs>
===============================================================================
B                    Z=   5    Mass=  10.810        Charge= 0.17977+309
Lmxo=1 Lmxkb= 3    BasisType=split      Semic=F
L=0  Nsemic=0  Cnfigmx=2
          n=1  nzeta=2  polorb=0
            splnorm:   0.15000    
               vcte:    0.0000    
               rinn:    0.0000    
                rcs:    0.0000      0.0000    
            lambdas:    1.0000      1.0000    
L=1  Nsemic=0  Cnfigmx=2
          n=1  nzeta=2  polorb=1
            splnorm:   0.15000    
               vcte:    0.0000    
               rinn:    0.0000    
                rcs:    0.0000      0.0000    
            lambdas:    1.0000      1.0000    
-------------------------------------------------------------------------------
L=0  Nkbl=1  erefs: 0.17977+309
L=1  Nkbl=1  erefs: 0.17977+309
L=2  Nkbl=1  erefs: 0.17977+309
L=3  Nkbl=1  erefs: 0.17977+309
===============================================================================
</basis_specs>

atom: Called for B                     (Z =   5)

read_vps: Pseudopotential generation method:
read_vps: ATM3      Troullier-Martins                       
Total valence charge:    3.00000

read_vps: Pseudopotential includes a core correction:
read_vps: Pseudo-core for xc-correction

xc_check: Exchange-correlation functional:
xc_check: GGA Perdew, Burke & Ernzerhof 1996
V l=0 = -2*Zval/r beyond r=  1.7165
V l=1 = -2*Zval/r beyond r=  1.7165
V l=2 = -2*Zval/r beyond r=  1.7165
V l=3 = -2*Zval/r beyond r=  1.6951
All V_l potentials equal beyond r=  1.7165
This should be close to max(r_c) in ps generation
All pots = -2*Zval/r beyond r=  1.7165

VLOCAL1: 99.0% of the norm of Vloc inside     14.733 Ry
VLOCAL1: 99.9% of the norm of Vloc inside     33.577 Ry
atom: Maximum radius for 4*pi*r*r*local-pseudopot. charge    2.04484
atom: Maximum radius for r*vlocal+2*Zval:    1.75994
GHOST: No ghost state for L =  0
GHOST: No ghost state for L =  1
GHOST: No ghost state for L =  2
GHOST: No ghost state for L =  3

KBgen: Kleinman-Bylander projectors: 
   l= 0   rc=  1.897051   el= -0.693730   Ekb=  4.595746   kbcos=  0.286105
   l= 1   rc=  1.920920   el= -0.265236   Ekb= -2.350715   kbcos= -0.315747
   l= 2   rc=  2.044840   el=  0.002055   Ekb= -0.690767   kbcos= -0.013822
   l= 3   rc=  2.149707   el=  0.003188   Ekb= -0.315358   kbcos= -0.002055

KBgen: Total number of  Kleinman-Bylander projectors:   16
atom: -------------------------------------------------------------------------

atom: SANKEY-TYPE ORBITALS:
atom: Selected multiple-zeta basis: split     

SPLIT: Orbitals with angular momentum L= 0

SPLIT: Basis orbitals for state 2s

SPLIT: PAO cut-off radius determined from an
SPLIT: energy shift=  0.007350 Ry

   izeta = 1
                 lambda =    1.000000
                     rc =    5.422032
                 energy =   -0.686029
                kinetic =    0.576707
    potential(screened) =   -1.262736
       potential(ionic) =   -3.271094

   izeta = 2
                 rmatch =    4.222573
              splitnorm =    0.150000
                 energy =   -0.602132
                kinetic =    0.858975
    potential(screened) =   -1.461107
       potential(ionic) =   -3.582536

SPLIT: Orbitals with angular momentum L= 1

SPLIT: Basis orbitals for state 2p

SPLIT: PAO cut-off radius determined from an
SPLIT: energy shift=  0.007350 Ry

   izeta = 1
                 lambda =    1.000000
                     rc =    6.790259
                 energy =   -0.258578
                kinetic =    1.481412
    potential(screened) =   -1.739989
       potential(ionic) =   -3.657461

   izeta = 2
                 rmatch =    4.608740
              splitnorm =    0.150000
                 energy =   -0.173757
                kinetic =    2.186690
    potential(screened) =   -2.360447
       potential(ionic) =   -4.464260

POLgen: Perturbative polarization orbital with L=  2

POLgen: Polarization orbital for state 2p

   izeta = 1
                     rc =    6.790259
                 energy =    0.684082
                kinetic =    1.471481
    potential(screened) =   -0.787399
       potential(ionic) =   -2.406985
atom: Total number of Sankey-type orbitals: 13

atm_pop: Valence configuration (for local Pseudopot. screening):
 2s( 2.00)                                                            
 2p( 1.00)                                                            
Vna: chval, zval:    3.00000   3.00000

Vna:  Cut-off radius for the neutral-atom potential:   6.790259
comcore: Pseudo-core radius Rcore=  2.122997

atom: _________________________________________________________________________

<basis_specs>
===============================================================================
C                    Z=   6    Mass=  12.010        Charge= 0.17977+309
Lmxo=1 Lmxkb= 3    BasisType=split      Semic=F
L=0  Nsemic=0  Cnfigmx=2
          n=1  nzeta=2  polorb=0
            splnorm:   0.15000    
               vcte:    0.0000    
               rinn:    0.0000    
                rcs:    0.0000      0.0000    
            lambdas:    1.0000      1.0000    
L=1  Nsemic=0  Cnfigmx=2
          n=1  nzeta=2  polorb=1
            splnorm:   0.15000    
               vcte:    0.0000    
               rinn:    0.0000    
                rcs:    0.0000      0.0000    
            lambdas:    1.0000      1.0000    
-------------------------------------------------------------------------------
L=0  Nkbl=1  erefs: 0.17977+309
L=1  Nkbl=1  erefs: 0.17977+309
L=2  Nkbl=1  erefs: 0.17977+309
L=3  Nkbl=1  erefs: 0.17977+309
===============================================================================
</basis_specs>

atom: Called for C                     (Z =   6)

read_vps: Pseudopotential generation method:
read_vps: ATM3      Troullier-Martins                       
Total valence charge:    4.00000

read_vps: Pseudopotential includes a core correction:
read_vps: Pseudo-core for xc-correction

xc_check: Exchange-correlation functional:
xc_check: GGA Perdew, Burke & Ernzerhof 1996
V l=0 = -2*Zval/r beyond r=  1.5227
V l=1 = -2*Zval/r beyond r=  1.5227
V l=2 = -2*Zval/r beyond r=  1.5227
V l=3 = -2*Zval/r beyond r=  1.5038
All V_l potentials equal beyond r=  1.5227
This should be close to max(r_c) in ps generation
All pots = -2*Zval/r beyond r=  1.5227

VLOCAL1: 99.0% of the norm of Vloc inside     18.722 Ry
VLOCAL1: 99.9% of the norm of Vloc inside     42.668 Ry
atom: Maximum radius for 4*pi*r*r*local-pseudopot. charge    1.83678
atom: Maximum radius for r*vlocal+2*Zval:    1.58088
GHOST: No ghost state for L =  0
GHOST: No ghost state for L =  1
GHOST: No ghost state for L =  2
GHOST: No ghost state for L =  3

KBgen: Kleinman-Bylander projectors: 
   l= 0   rc=  1.704034   el= -1.009801   Ekb=  5.335044   kbcos=  0.316824
   l= 1   rc=  1.704034   el= -0.388707   Ekb= -3.785862   kbcos= -0.366464
   l= 2   rc=  1.791422   el=  0.001971   Ekb= -0.970471   kbcos= -0.009212
   l= 3   rc=  1.859892   el=  0.003065   Ekb= -0.399525   kbcos= -0.001223

KBgen: Total number of  Kleinman-Bylander projectors:   16
atom: -------------------------------------------------------------------------

atom: SANKEY-TYPE ORBITALS:
atom: Selected multiple-zeta basis: split     

SPLIT: Orbitals with angular momentum L= 0

SPLIT: Basis orbitals for state 2s

SPLIT: PAO cut-off radius determined from an
SPLIT: energy shift=  0.007350 Ry

   izeta = 1
                 lambda =    1.000000
                     rc =    4.632753
                 energy =   -1.002270
                kinetic =    0.855760
    potential(screened) =   -1.858031
       potential(ionic) =   -5.417575

   izeta = 2
                 rmatch =    3.431921
              splitnorm =    0.150000
                 energy =   -0.867111
                kinetic =    1.300804
    potential(screened) =   -2.167915
       potential(ionic) =   -5.962684

SPLIT: Orbitals with angular momentum L= 1

SPLIT: Basis orbitals for state 2p

SPLIT: PAO cut-off radius determined from an
SPLIT: energy shift=  0.007350 Ry

   izeta = 1
                 lambda =    1.000000
                     rc =    5.658549
                 energy =   -0.381140
                kinetic =    2.399701
    potential(screened) =   -2.780841
       potential(ionic) =   -6.206085

   izeta = 2
                 rmatch =    3.653288
              splitnorm =    0.150000
                 energy =   -0.249149
                kinetic =    3.542762
    potential(screened) =   -3.791911
       potential(ionic) =   -7.581078

POLgen: Perturbative polarization orbital with L=  2

POLgen: Polarization orbital for state 2p

   izeta = 1
                     rc =    5.658549
                 energy =    1.109913
                kinetic =    2.304789
    potential(screened) =   -1.194876
       potential(ionic) =   -4.013592
atom: Total number of Sankey-type orbitals: 13

atm_pop: Valence configuration (for local Pseudopot. screening):
 2s( 2.00)                                                            
 2p( 2.00)                                                            
Vna: chval, zval:    4.00000   4.00000

Vna:  Cut-off radius for the neutral-atom potential:   5.658549
comcore: Pseudo-core radius Rcore=  1.791422

atom: _________________________________________________________________________

prinput: Basis input ----------------------------------------------------------

PAO.BasisType split     

%block ChemicalSpeciesLabel
    1    5 B                       # Species index, atomic number, species label
    2    6 C                       # Species index, atomic number, species label
%endblock ChemicalSpeciesLabel

%block PAO.Basis                 # Define Basis set
B                     2                    # Species label, number of l-shells
 n=2   0   2                         # n, l, Nzeta 
   5.422      4.223   
   1.000      1.000   
 n=2   1   2 P   1                   # n, l, Nzeta, Polarization, NzetaPol
   6.790      4.609   
   1.000      1.000   
C                     2                    # Species label, number of l-shells
 n=2   0   2                         # n, l, Nzeta 
   4.633      3.432   
   1.000      1.000   
 n=2   1   2 P   1                   # n, l, Nzeta, Polarization, NzetaPol
   5.659      3.653   
   1.000      1.000   
%endblock PAO.Basis

prinput: ----------------------------------------------------------------------

coor:   Atomic-coordinates input format  =     Fractional

siesta: Atomic coordinates (Bohr) and species
siesta:     -0.02582   5.28395   0.00000  1        1
siesta:      2.30256   6.62836   0.00000  1        2
siesta:      2.30256   9.31683   0.00000  1        3
siesta:      4.63094  10.66124   0.00000  1        4
siesta:      4.63094  13.34970   0.00000  1        5
siesta:      6.95932  14.69411   0.00000  1        6
siesta:      6.95932  17.38257   0.00000  1        7
siesta:     -2.35420   6.62836   0.00000  1        8
siesta:     -2.35420   9.31683   0.00000  1        9
siesta:     -0.02582  13.34970   0.00000  1       10
siesta:      2.30256  17.38257   0.00000  1       11
siesta:      4.63094  18.72698   0.00000  1       12
siesta:      4.63094  21.41544   0.00000  1       13
siesta:     -4.68258  10.66124   0.00000  1       14
siesta:     -4.68258  13.34970   0.00000  1       15
siesta:     -2.35420  17.38257   0.00000  1       16
siesta:      2.30256  22.75985   0.00000  1       17
siesta:      2.30256  25.44831   0.00000  1       18
siesta:     -7.01096  14.69411   0.00000  1       19
siesta:     -7.01096  17.38257   0.00000  1       20
siesta:     -4.68258  18.72698   0.00000  1       21
siesta:     -4.68258  21.41544   0.00000  1       22
siesta:     -2.35420  22.75985   0.00000  1       23
siesta:     -2.35420  25.44831   0.00000  1       24
siesta:     -0.02582  26.79272   0.00000  1       25
siesta:     -0.02582   2.59549   0.00000  2       26
siesta:     -2.35420  38.89134   0.00000  2       27
siesta:     -2.35420  41.57980   0.00000  2       28
siesta:      2.30256  38.89134   0.00000  2       29
siesta:      2.30256  41.57980   0.00000  2       30
siesta:      4.63094  34.85847   0.00000  2       31
siesta:      4.63094  37.54693   0.00000  2       32
siesta:      6.95932  30.82560   0.00000  2       33
siesta:      6.95932  33.51406   0.00000  2       34
siesta:      9.28770  26.79272   0.00000  2       35
siesta:      9.28770  29.48119   0.00000  2       36
siesta:     -4.68258  34.85847   0.00000  2       37
siesta:     -4.68258  37.54693   0.00000  2       38
siesta:      9.28770  18.72698   0.00000  2       39
siesta:      9.28770  21.41544   0.00000  2       40
siesta:     11.61608  22.75985   0.00000  2       41
siesta:     11.61608  25.44831   0.00000  2       42
siesta:     -0.02582  10.66124   0.00000  2       43
siesta:      2.30256  14.69411   0.00000  2       44
siesta:      6.95932  22.75985   0.00000  2       45
siesta:      6.95932  25.44831   0.00000  2       46
siesta:     -2.35420  14.69411   0.00000  2       47
siesta:     -0.02582  18.72698   0.00000  2       48
siesta:     -0.02582  21.41544   0.00000  2       49
siesta:     -9.33934  18.72698   0.00000  2       50
siesta:     -9.33934  21.41544   0.00000  2       51
siesta:     -7.01096  22.75985   0.00000  2       52
siesta:     -7.01096  25.44831   0.00000  2       53
siesta:    -11.66772  22.75985   0.00000  2       54
siesta:    -11.66772  25.44831   0.00000  2       55
siesta:     -9.33934  26.79272   0.00000  2       56
siesta:     -9.33934  29.48119   0.00000  2       57
siesta:      4.63094  26.79272   0.00000  2       58
siesta:      4.63094  29.48119   0.00000  2       59
siesta:     -0.02582  29.48119   0.00000  2       60
siesta:     -4.68258  26.79272   0.00000  2       61
siesta:     -4.68258  29.48119   0.00000  2       62
siesta:      2.30256  30.82560   0.00000  2       63
siesta:      2.30256  33.51406   0.00000  2       64
siesta:     -2.35420  30.82560   0.00000  2       65
siesta:     -2.35420  33.51406   0.00000  2       66
siesta:     -7.01096  30.82560   0.00000  2       67
siesta:     -7.01096  33.51406   0.00000  2       68
siesta:     -0.02582  34.85847   0.00000  2       69
siesta:     -0.02582  37.54693   0.00000  2       70
siesta:     -0.02582  42.92421   0.00000  2       71
siesta:     -0.02582  45.61267   0.00000  2       72

siesta: System type = slab      

initatomlists: Number of atoms, orbitals, and projectors:     72   936  1152

siesta: ******************** Simulation parameters ****************************
siesta:
siesta: The following are some of the parameters of the simulation.
siesta: A complete list of the parameters used, including default values,
siesta: can be found in file out.fdf
siesta:
redata: Non-Collinear-spin run           =     F
redata: SpinPolarized (Up/Down) run      =     F
redata: Number of spin components        =     1
redata: Long output                      =     F
redata: Number of Atomic Species         =        2
redata: Charge density info will appear in .RHO file
redata: Write Mulliken Pop.              =     NO
redata: Mesh Cutoff                      =   200.0000  Ry
redata: Net charge of the system         =     0.0000 |e|
redata: Max. number of SCF Iter          =      500
redata: SCF convergence failure will abort job
redata: Performing Pulay mixing using    =    10 iterations
redata: Mix DM in first SCF step ?       =     F
redata: Write Pulay info on disk?        =     F
redata: Discard 1st Pulay DM after  kick =     F
redata: New DM Mixing Weight             =     0.0500
redata: New DM Occupancy tolerance       = 0.000000000001
redata: No kicks to SCF
redata: DM Mixing Weight for Kicks       =     0.5000
redata: DM Tolerance for SCF             =     0.000100
redata: Require Energy convergence for SCF =     F
redata: DM Energy tolerance for SCF      =     0.000100 eV
redata: Require Harris convergence for SCF =     F
redata: DM Harris energy tolerance for SCF =     0.000100 eV
redata: Using Saved Data (generic)   =     F
redata: Use continuation files for DM    =     T
redata: Neglect nonoverlap interactions  =     F
redata: Method of Calculation            =     Diagonalization
redata: Divide and Conquer               =     T
redata: Electronic Temperature           =     0.0019  Ry
redata: Fix the spin of the system       =     F
redata: Dynamics option                  =     Verlet MD run
redata: Initial MD time step             =        1
redata:   Final MD time step             =        1
redata: Length of MD time step           =     1.0000  fs
redata: Initial Temperature of MD run    =     0.0000  K
redata: Perform a MD quench              =     F
redata: ***********************************************************************
Total number of electrons:   263.000000
Total ionic charge:   263.000000

* ProcessorY, Blocksize:    2  24

k-point displ. along   1 input, could be:     0.50    0.00
k-point displ. along   2 input, could be:     0.50    0.00
 Kpoints in:          231 . Kpoints trimmed:          231

siesta: k-grid: Number of k-points =   231
siesta: k-grid: Cutoff (effective) =     5.000 Ang
siesta: k-grid: Supercell and displacements
siesta: k-grid:   21   0   0      0.500
siesta: k-grid:    0  21   0      0.500
siesta: k-grid:    0   0   1      0.000
Naive supercell factors:     2    2    2

superc: Internal auxiliary supercell:     2 x     2 x     2  =       8
superc: Number of atoms, orbitals, and projectors:    576   7488   9216

* Maximum dynamic memory allocated =     4 MB

siesta:                 ==============================
                            Begin MD step =      1
                        ==============================

superc: Internal auxiliary supercell:     2 x     2 x     2  =       8
superc: Number of atoms, orbitals, and projectors:    576   7488   9216

outcell: Unit cell vectors (Ang):
       12.804619    7.392750    0.000000
        0.000000   14.785500    0.000000
        0.000000    0.000000   10.000000

outcell: Cell vector modules (Ang)   :   14.785500   14.785500   10.000000
outcell: Cell angles (23,13,12) (deg):     90.0000     90.0000     60.0000
outcell: Cell volume (Ang**3)        :   1893.2269
New_DM. Step:     1
Initializing Density Matrix...

InitMesh: MESH =   120 x   120 x    90 =     1296000
InitMesh: Mesh cutoff (required, used) =   200.000   223.865 Ry

* Maximum dynamic memory allocated =   230 MB

stepf: Fermi-Dirac step function

siesta: Program's energy decomposition (eV):
siesta: Ebs     =     -5467.429203
siesta: Eions   =     15201.593291
siesta: Ena     =      4140.687573
siesta: Ekin    =      5059.728642
siesta: Enl     =       865.700294
siesta: DEna    =        -0.000006
siesta: DUscf   =         0.000000
siesta: DUext   =         0.000000
siesta: Exc     =     -4203.782106
siesta: eta*DQ  =         0.000000
siesta: Emadel  =         0.000000
siesta: Emeta   =         0.000000
siesta: Emolmec =         0.000000
siesta: Ekinion =         0.000000
siesta: Eharris =     -9159.570336
siesta: Etot    =     -9339.258894
siesta: FreeEng =     -9339.258894

siesta: iscf   Eharris(eV)      E_KS(eV)   FreeEng(eV)   dDmax  Ef(eV)
siesta:    1    -9159.5703    -9339.2589    -9339.2589  7.2213 -8.5222
timer: Routine,Calls,Time,% = IterSCF        1    4477.425  99.72
elaps: Routine,Calls,Wall,% = IterSCF        1     560.440  99.72
siesta:    2   -15877.0043    -8144.0723    -8144.1370 17.2477 -6.0445
siesta:    3    -9229.6200    -9151.5127    -9151.6097  2.5084 -5.8316
siesta:    4    -9156.6506    -9066.0533    -9066.1360  1.6906 -5.4601
siesta:    5    -9031.1876    -8981.5207    -8981.5560  1.4816 -5.2283
siesta:    6    -9003.6906    -8960.2014    -8960.2486  1.3279 -5.1060
siesta:    7    -8994.8048    -8951.7061    -8951.7372  1.2321 -5.1529
siesta:    8    -8992.3433    -8947.3534    -8947.3953  1.1647 -5.1410
siesta:    9    -8986.9381    -8941.6349    -8941.6954  0.6235 -5.3624
siesta:   10    -8986.4918    -8942.8087    -8942.8294  0.5112 -5.3254
siesta:   11    -8985.3811    -8944.4406    -8944.4816  0.4107 -5.3266
siesta:   12    -8985.8178    -8951.9870    -8952.0287  0.3091 -5.2196
siesta:   13    -8986.4618    -8955.1181    -8955.1833  0.5955 -5.2744
siesta:   14    -8984.9122    -8955.9870    -8956.0366  0.4766 -5.2986
siesta:   15    -8984.6035    -8962.2674    -8962.3111  0.2215 -5.2938
siesta:   16    -8984.4881    -8966.7820    -8966.8261  0.1544 -5.2792
siesta:   17    -8984.1292    -8975.0571    -8975.1010  0.3310 -5.3618
siesta:   18    -8984.0780    -8980.9765    -8981.0193  0.3016 -5.3153
siesta:   19    -8983.9629    -8982.1721    -8982.2090  0.0791 -5.3608
siesta:   20    -8983.9338    -8982.5964    -8982.6369  0.0962 -5.3664
siesta:   21    -8983.9010    -8985.3241    -8985.3660  0.1399 -5.3642
siesta:   22    -8983.8897    -8987.3540    -8987.3968  0.1027 -5.3625
siesta:   23    -8983.8883    -8987.9832    -8988.0247  0.1373 -5.3637
siesta:   24    -8983.8795    -8988.8792    -8988.9208  0.1031 -5.3607
siesta:   25    -8983.8774    -8988.3163    -8988.3568  0.0615 -5.3462
siesta:   26    -8983.8722    -8985.5859    -8985.6243  0.0382 -5.3289
siesta:   27    -8983.8700    -8985.6041    -8985.6423  0.0342 -5.3140
siesta:   28    -8983.8696    -8985.5021    -8985.5400  0.0193 -5.3157
siesta:   29    -8983.8692    -8985.0876    -8985.1255  0.0077 -5.3195
siesta:   30    -8983.8689    -8984.5265    -8984.5646  0.0057 -5.3208
siesta:   31    -8983.8685    -8984.1828    -8984.2212  0.0037 -5.3214
siesta:   32    -8983.8686    -8984.0373    -8984.0756  0.0015 -5.3214
siesta:   33    -8983.8686    -8983.9851    -8984.0235  0.0012 -5.3213
siesta:   34    -8983.8686    -8983.9460    -8983.9843  0.0011 -5.3211
siesta:   35    -8983.8685    -8983.8635    -8983.9017  0.0008 -5.3214
siesta:   36    -8983.8685    -8983.8522    -8983.8905  0.0006 -5.3215
siesta:   37    -8983.8685    -8983.8393    -8983.8776  0.0004 -5.3216
siesta:   38    -8983.8685    -8983.8358    -8983.8741  0.0003 -5.3216
siesta:   39    -8983.8685    -8983.8424    -8983.8807  0.0002 -5.3215
siesta:   40    -8983.8685    -8983.8509    -8983.8892  0.0003 -5.3215
siesta:   41    -8983.8685    -8983.8520    -8983.8903  0.0002 -5.3215
siesta:   42    -8983.8685    -8983.8611    -8983.8993  0.0001 -5.3215

siesta: E_KS(eV) =            -8983.8641

siesta: E_KS - E_eggbox =     -8983.8641

siesta: Atomic forces (eV/Ang):
----------------------------------------
   Tot   -0.159481   -0.140019    0.000000
----------------------------------------
   Max  571.606411
   Res  143.989724    sqrt( Sum f_i^2 / 3N )
----------------------------------------
   Max  571.606411    constrained

Stress-tensor-Voigt (kbar):     -736.11    -2635.78       -0.71       -0.84        0.00        0.00
(Free)E + p*V (eV/cell)    -7655.4921
Target enthalpy (eV/cell)    -8983.9024

siesta: Stress tensor (static) (eV/Ang**3):
        -0.459440   -0.000523    0.000000
        -0.000523   -1.645110    0.000000
         0.000000    0.000000   -0.000444

siesta: Pressure (static):       1124.20284604  kBar

siesta: Stress tensor (total) (eV/Ang**3):
        -0.459440   -0.000523    0.000000
        -0.000523   -1.645110    0.000000
         0.000000    0.000000   -0.000444

siesta: Pressure (total):       1124.20284604  kBar

siesta: Temp_ion =       0.000 K

* Maximum dynamic memory allocated =   247 MB
Computing bands...

siesta: Program's energy decomposition (eV):
siesta: Ebs     =     -4036.952716
siesta: Eions   =     15201.593291
siesta: Ena     =      4140.687573
siesta: Ekin    =      7885.831646
siesta: Enl     =      -760.001130
siesta: DEna    =      -782.544033
siesta: DUscf   =       106.512003
siesta: DUext   =         0.000000
siesta: Exc     =     -4372.756917
siesta: eta*DQ  =         0.000000
siesta: Emadel  =         0.000000
siesta: Emeta   =         0.000000
siesta: Emolmec =         0.000000
siesta: Ekinion =         0.000000
siesta: Eharris =     -8983.868532
siesta: Etot    =     -8983.864150
siesta: FreeEng =     -8983.902436

siesta: Final energy (eV):
siesta:  Band Struct. =   -4036.952716
siesta:       Kinetic =    7885.831646
siesta:       Hartree =   25071.987591
siesta:    Ext. field =       0.000000
siesta:   Exch.-corr. =   -4372.756917
siesta:  Ion-electron =  -57741.002202
siesta:       Ion-ion =   20172.075732
siesta:       Ekinion =       0.000000
siesta:         Total =   -8983.864150

siesta: Atomic forces (eV/Ang):
siesta:      1   -0.004263 -104.521121    0.000000
siesta:      2   -1.754271  394.844239    0.000000
siesta:      3    5.176535 -109.975887    0.000000
siesta:      4   18.919015  394.095390    0.000000
siesta:      5   15.901807   -2.374509    0.000000
siesta:      6    2.713901   -3.127158    0.000000
siesta:      7    9.415821    0.048051    0.000000
siesta:      8    1.753919  394.864299    0.000000
siesta:      9   -5.262727 -109.986019    0.000000
siesta:     10    0.009845 -115.033340    0.000000
siesta:     11   16.749180   -4.817842    0.000000
siesta:     12   -3.797824   -1.538252    0.000000
siesta:     13    5.921883    3.060413    0.000000
siesta:     14  -18.937972  394.079930    0.000000
siesta:     15  -15.913165   -2.363165    0.000000
siesta:     16  -16.743981   -4.791116    0.000000
siesta:     17   -5.493834   -4.555690    0.000000
siesta:     18    5.029714    3.869133    0.000000
siesta:     19   -2.713220   -3.113579    0.000000
siesta:     20   -9.439101    0.034278    0.000000
siesta:     21    3.833978   -1.551633    0.000000
siesta:     22   -5.929771    3.057443    0.000000
siesta:     23    5.474862   -4.510496    0.000000
siesta:     24   -5.034130    3.866046    0.000000
siesta:     25    0.007095    3.100024    0.000000
siesta:     26   -0.006823  555.162803    0.000000
siesta:     27   -4.131356  127.801285    0.000000
siesta:     28  -17.725298 -551.374221    0.000000
siesta:     29    4.094515  127.776059    0.000000
siesta:     30   17.726170 -551.347270    0.000000
siesta:     31   24.385327   -3.310476    0.000000
siesta:     32   31.595869 -402.771513    0.000000
siesta:     33    2.431876    0.450518    0.000000
siesta:     34   -2.633233    2.524896    0.000000
siesta:     35    1.706196    1.969082    0.000000
siesta:     36   -1.137340    0.496968    0.000000
siesta:     37  -24.387263   -3.319466    0.000000
siesta:     38  -31.553412 -402.753449    0.000000
siesta:     39    0.214218    2.630356    0.000000
siesta:     40    4.027930   -2.483879    0.000000
siesta:     41   -0.181589    7.010482    0.000000
siesta:     42    0.907461   -6.754143    0.000000
siesta:     43   -0.021791  547.754175    0.000000
siesta:     44   24.699128  545.265154    0.000000
siesta:     45    1.354449    2.309757    0.000000
siesta:     46    0.829915   -0.183843    0.000000
siesta:     47  -24.670132  545.292696    0.000000
siesta:     48   -0.009756  558.717674    0.000000
siesta:     49   -0.023776   -2.423267    0.000000
siesta:     50   -0.200249    2.631177    0.000000
siesta:     51   -4.029462   -2.471093    0.000000
siesta:     52   -1.363797    2.313569    0.000000
siesta:     53   -0.849166   -0.192177    0.000000
siesta:     54    0.203076    7.012056    0.000000
siesta:     55   -0.904912   -6.757629    0.000000
siesta:     56   -1.702740    1.963845    0.000000
siesta:     57    1.142028    0.486984    0.000000
siesta:     58    2.165476    1.681984    0.000000
siesta:     59   -1.093695   -1.726408    0.000000
siesta:     60    0.009771 -571.606411    0.000000
siesta:     61   -2.186517    1.680763    0.000000
siesta:     62    1.089453   -1.728520    0.000000
siesta:     63   18.764603    3.791529    0.000000
siesta:     64   32.757800 -409.380283    0.000000
siesta:     65  -18.765639    3.799862    0.000000
siesta:     66  -32.774021 -409.411420    0.000000
siesta:     67   -2.407429    0.453528    0.000000
siesta:     68    2.621684    2.523862    0.000000
siesta:     69   -0.006791  131.237025    0.000000
siesta:     70    0.008421 -564.753255    0.000000
siesta:     71   -0.000501  135.179964    0.000000
siesta:     72   -0.011455 -547.968785    0.000000
siesta: ----------------------------------------
siesta:    Tot   -0.159481   -0.140019    0.000000

siesta: Stress tensor (static) (eV/Ang**3):
siesta:    -0.459440   -0.000523    0.000000
siesta:    -0.000523   -1.645110    0.000000
siesta:     0.000000    0.000000   -0.000444

siesta: Cell volume =       1893.226884 Ang**3

siesta: Pressure (static):
siesta:                Solid            Molecule  Units
siesta:           0.00764202          0.11024362  Ry/Bohr**3
siesta:           0.70166464         10.12219464  eV/Ang**3
siesta:        1124.20284604      16217.71903244  kBar
(Free)E+ p_basis*V_orbitals  =       -8945.265984
(Free)Eharris+ p_basis*V_orbitals  =       -8945.273461

siesta: Electric dipole (a.u.)  =    0.000000    0.000000    0.000000
siesta: Electric dipole (Debye) =    0.000000    0.000000    0.000000

* Maximum dynamic memory allocated : Node    0 =   247 MB
* Maximum dynamic memory allocated : Node    1 =    87 MB
* Maximum dynamic memory allocated : Node    2 =    89 MB
* Maximum dynamic memory allocated : Node    3 =   233 MB
* Maximum dynamic memory allocated : Node    4 =   235 MB
* Maximum dynamic memory allocated : Node    5 =    84 MB
* Maximum dynamic memory allocated : Node    6 =    87 MB
* Maximum dynamic memory allocated : Node    7 =   217 MB

* Maximum memory occured during matrixMtoO                    

timer: CPU execution times:
timer:  Routine       Calls   Time/call    Tot.time        %
timer:  siesta            1  186297.706  186297.706   100.00
timer:  Setup             1       3.808       3.808     0.00
timer:  bands             3     268.641     805.923     0.43
timer:  writewave         1       0.043       0.043     0.00
timer:  KSV_init          1       0.005       0.005     0.00
timer:  IterMD            1  185482.315  185482.315    99.56
timer:  hsparse           1       0.400       0.400     0.00
timer:  overlap           1       7.799       7.799     0.00
timer:  IterSCF          42    4410.523  185241.960    99.43
timer:  kinefsm           2       4.075       8.149     0.00
timer:  nlefsm            2      22.196      44.392     0.02
timer:  DHSCF            43     128.298    5516.826     2.96
timer:  DHSCF1            1       0.994       0.994     0.00
timer:  DHSCF2            1      46.169      46.169     0.02
timer:  REORD           346       0.010       3.471     0.00
timer:  POISON           44       2.244      98.729     0.05
timer:  DHSCF3           43     126.095    5422.090     2.91
timer:  rhoofd           43      27.115    1165.948     0.63
timer:  cellXC           43       3.526     151.631     0.08
timer:  vmat             43      62.092    2669.960     1.43
timer:  MolMec            2       0.000       0.000     0.00
timer:  diagon           42    4280.555  179783.294    96.50
timer:  c-eigval       9823       6.670   65520.716    35.17
timer:  c-buildHS      9823       0.124    1214.734     0.65
timer:  cdiag         19525       6.884  134408.759    72.15
timer:  cdiag1        19525       0.427    8330.096     4.47
timer:  cdiag2        19525       1.909   37274.501    20.01
timer:  cdiag3        19525       3.931   76755.099    41.20
timer:  cdiag4        19525       0.223    4358.920     2.34
timer:  c-eigvec       9702       7.295   70773.871    37.99
timer:  c-buildD       9702       4.560   44241.336    23.75
timer:  DHSCF4            1      45.248      45.248     0.02
timer:  dfscf             1      42.521      42.521     0.02
timer:  overfsm           1       0.492       0.492     0.00
timer:  optical           1       4.980       4.980     0.00
  

elaps: ELAPSED times:
elaps:  Routine       Calls   Time/call    Tot.time        %
elaps:  siesta            1   23314.199   23314.199   100.00
elaps:  Setup             1       0.494       0.494     0.00
elaps:  bands             3      33.632     100.895     0.43
elaps:  writewave         1       0.006       0.006     0.00
elaps:  KSV_init          1       0.001       0.001     0.00
elaps:  IterMD            1   23212.154   23212.154    99.56
elaps:  hsparse           1       0.051       0.051     0.00
elaps:  overlap           1       0.976       0.976     0.00
elaps:  IterSCF          42     551.958   23182.219    99.43
elaps:  kinefsm           2       0.507       1.013     0.00
elaps:  nlefsm            2       2.766       5.533     0.02
elaps:  DHSCF            43      16.181     695.791     2.98
elaps:  DHSCF1            1       0.127       0.127     0.00
elaps:  DHSCF2            1       5.774       5.774     0.02
elaps:  REORD           346       0.001       0.466     0.00
elaps:  POISON           44       0.281      12.355     0.05
elaps:  DHSCF3           43      15.775     678.327     2.91
elaps:  rhoofd           43       7.119     306.130     1.31
elaps:  cellXC           43       0.441      18.948     0.08
elaps:  vmat             43       7.768     334.014     1.43
elaps:  MolMec            2       0.000       0.000     0.00
elaps:  diagon           42     535.713   22499.931    96.51
elaps:  c-eigval       9823       0.835    8197.838    35.16
elaps:  c-buildHS      9823       0.017     166.167     0.71
elaps:  cdiag         19525       0.846   16514.276    70.83
elaps:  cdiag1        19525       0.053    1041.135     4.47
elaps:  cdiag2        19525       0.239    4663.918    20.00
elaps:  cdiag3        19525       0.493    9616.563    41.25
elaps:  cdiag4        19525       0.028     552.937     2.37
elaps:  c-eigvec       9702       0.886    8594.191    36.86
elaps:  c-buildD       9702       0.598    5800.944    24.88
elaps:  DHSCF4            1      11.253      11.253     0.05
elaps:  dfscf             1      10.723      10.723     0.05
elaps:  overfsm           1       0.063       0.063     0.00
elaps:  optical           1       0.001       0.001     0.00
  
>> End of run:  21-APR-2016  22:00:04
