Siesta Version:                                        siesta-3.2-pl-3
Architecture  : x86_64-unknown-linux-gnu--unknown
Compiler flags: mpiifort -g -O2 -fPIC -xSSE4.1 -fp-model source -shared-intel 
PARALLEL version

* Running on    8 nodes in parallel
>> Start of run:   7-MAY-2016   3:33:02

                           ***********************       
                           *  WELCOME TO SIESTA  *       
                           ***********************       

reinit: Reading from standard input
************************** Dump of input data file ****************************
#(1) General system descriptors
SystemName            GRP_doping    # Descriptive name of the system
SystemLabel           GRP_doping    # Short name for naming files
%include STRUCT.fdf
%include KPT.fdf
%include BASIS.fdf
#%include TS.fdf # for transiesta calculation
#(4) DFT, Grid, SCF
XC.functional         GGA           # LDA or GGA (default = LDA)
XC.authors            PBE           # CA (Ceperley-Aldr) = PZ
                                    #    (Perdew-Zunger) - LDA - Default
                                    # PW92 (Perdew-Wang-92) - LDA
                                    # PBE (Perdew-Burke-Ernzerhof) - GGA
MeshCutoff            200.000000    Ry      # Default: 50.0 Ry ~ 0.444 Bohr
                                    #         100.0 Ry ~ 0.314 Bohr
MaxSCFIterations      500           # Default: 50
DM.MixingWeight       0.05          # Default: 0.25
DM.NumberPulay        10            # Default: 0
DM.PulayOnFile        F             # SystemLabel.P1, SystemLabel.P2
DM.Tolerance          1.d-4         # Default: 1.d-4
DM.UseSaveDM          .true.        # because of the bug
SCFMustConverge       .true.
NeglNonOverlapInt     F             # Default: F
#(5) Eigenvalue problem: order-N or diagonalization
SolutionMethod        Diagon        # or Transiesta
ElectronicTemperature 300.0 K       # Default: 300.0 K
#(6) Molecular dynamics and relaxations
#MD.TypeOfRun          CG            # Type of dynamics:
#MD.VariableCell       F
#MD.NumCGsteps         0           # 0 for single-point / 100 for gopt
#MD.MaxCGDispl         0.2 Bohr      # Default: 0.2 Bohr
#MD.MaxForceTol        0.02 eV/Ang   # Default: 0.04 eV/Ang
#MD.MaxStressTol       1.0 GPa       # Default: 1.0 GPa
# Geometry Constraints
#%block GeometryConstraints
#	position from 1 to 44
#%endblock GeometryConstraints
BandLinesScale   pi/a
%block BandLines
 1   0.00000000  0.00000000  0.00000000
50   0.00000000  0.07809418  0.00000000
50   0.04509075  0.07809242  0.00000000
20   0.00000000  0.00000000  0.00000000
%endblock BandLines
************************** End of input data file *****************************

reinit: -----------------------------------------------------------------------
reinit: System Name: GRP_doping
reinit: -----------------------------------------------------------------------
reinit: System Label: GRP_doping                                                  
reinit: -----------------------------------------------------------------------

initatom: Reading input for the pseudopotentials and atomic orbitals ----------
 Species number:            1  Label: N Atomic number:           7
 Species number:            2  Label: C Atomic number:           6
Ground state valence configuration:   2s02  2p03
Reading pseudopotential information in formatted form from N.psf

Valence configuration for pseudopotential generation:
2s( 2.00) rc: 1.48
2p( 3.00) rc: 1.48
3d( 0.00) rc: 1.48
4f( 0.00) rc: 1.48
Ground state valence configuration:   2s02  2p02
Reading pseudopotential information in formatted form from C.psf

Valence configuration for pseudopotential generation:
2s( 2.00) rc: 1.54
2p( 2.00) rc: 1.54
3d( 0.00) rc: 1.54
4f( 0.00) rc: 1.54
For N, standard SIESTA heuristics set lmxkb to 3
 (one more than the basis l, including polarization orbitals).
Use PS.lmax or PS.KBprojectors blocks to override.
For C, standard SIESTA heuristics set lmxkb to 3
 (one more than the basis l, including polarization orbitals).
Use PS.lmax or PS.KBprojectors blocks to override.

<basis_specs>
===============================================================================
N                    Z=   7    Mass=  14.010        Charge= 0.17977+309
Lmxo=1 Lmxkb= 3    BasisType=split      Semic=F
L=0  Nsemic=0  Cnfigmx=2
          n=1  nzeta=2  polorb=0
            splnorm:   0.15000    
               vcte:    0.0000    
               rinn:    0.0000    
                rcs:    0.0000      0.0000    
            lambdas:    1.0000      1.0000    
L=1  Nsemic=0  Cnfigmx=2
          n=1  nzeta=2  polorb=1
            splnorm:   0.15000    
               vcte:    0.0000    
               rinn:    0.0000    
                rcs:    0.0000      0.0000    
            lambdas:    1.0000      1.0000    
-------------------------------------------------------------------------------
L=0  Nkbl=1  erefs: 0.17977+309
L=1  Nkbl=1  erefs: 0.17977+309
L=2  Nkbl=1  erefs: 0.17977+309
L=3  Nkbl=1  erefs: 0.17977+309
===============================================================================
</basis_specs>

atom: Called for N                     (Z =   7)

read_vps: Pseudopotential generation method:
read_vps: ATM3      Troullier-Martins                       
Total valence charge:    5.00000

read_vps: Pseudopotential includes a core correction:
read_vps: Pseudo-core for xc-correction

xc_check: Exchange-correlation functional:
xc_check: GGA Perdew, Burke & Ernzerhof 1996
V l=0 = -2*Zval/r beyond r=  1.4606
V l=1 = -2*Zval/r beyond r=  1.4606
V l=2 = -2*Zval/r beyond r=  1.4606
V l=3 = -2*Zval/r beyond r=  1.4606
All V_l potentials equal beyond r=  1.4606
This should be close to max(r_c) in ps generation
All pots = -2*Zval/r beyond r=  1.4606

VLOCAL1: 99.0% of the norm of Vloc inside     20.347 Ry
VLOCAL1: 99.9% of the norm of Vloc inside     46.372 Ry
atom: Maximum radius for 4*pi*r*r*local-pseudopot. charge    1.76189
atom: Maximum radius for r*vlocal+2*Zval:    1.53550
GHOST: No ghost state for L =  0
GHOST: No ghost state for L =  1
GHOST: No ghost state for L =  2
GHOST: No ghost state for L =  3

KBgen: Kleinman-Bylander projectors: 
   l= 0   rc=  1.634559   el= -1.363963   Ekb=  5.296955   kbcos=  0.335621
   l= 1   rc=  1.614250   el= -0.521451   Ekb= -5.259161   kbcos= -0.433408
   l= 2   rc=  1.718383   el=  0.001991   Ekb= -1.271464   kbcos= -0.007566
   l= 3   rc=  1.761893   el=  0.003093   Ekb= -0.494769   kbcos= -0.001015

KBgen: Total number of  Kleinman-Bylander projectors:   16
atom: -------------------------------------------------------------------------

atom: SANKEY-TYPE ORBITALS:
atom: Selected multiple-zeta basis: split     

SPLIT: Orbitals with angular momentum L= 0

SPLIT: Basis orbitals for state 2s

SPLIT: PAO cut-off radius determined from an
SPLIT: energy shift=  0.007350 Ry

   izeta = 1
                 lambda =    1.000000
                     rc =    4.071465
                 energy =   -1.356470
                kinetic =    1.176977
    potential(screened) =   -2.533447
       potential(ionic) =   -8.057990

   izeta = 2
                 rmatch =    2.905100
              splitnorm =    0.150000
                 energy =   -1.158343
                kinetic =    1.813009
    potential(screened) =   -2.971352
       potential(ionic) =   -8.901931

SPLIT: Orbitals with angular momentum L= 1

SPLIT: Basis orbitals for state 2p

SPLIT: PAO cut-off radius determined from an
SPLIT: energy shift=  0.007350 Ry

   izeta = 1
                 lambda =    1.000000
                     rc =    4.972977
                 energy =   -0.513884
                kinetic =    3.441732
    potential(screened) =   -3.955616
       potential(ionic) =   -9.287901

   izeta = 2
                 rmatch =    3.054066
              splitnorm =    0.150000
                 energy =   -0.318226
                kinetic =    5.125348
    potential(screened) =   -5.443573
       potential(ionic) =  -11.380999

POLgen: Perturbative polarization orbital with L=  2

POLgen: Polarization orbital for state 2p

   izeta = 1
                     rc =    4.972977
                 energy =    1.607437
                kinetic =    3.268125
    potential(screened) =   -1.660688
       potential(ionic) =   -5.973652
atom: Total number of Sankey-type orbitals: 13

atm_pop: Valence configuration (for local Pseudopot. screening):
 2s( 2.00)                                                            
 2p( 3.00)                                                            
Vna: chval, zval:    5.00000   5.00000

Vna:  Cut-off radius for the neutral-atom potential:   4.972977
comcore: Pseudo-core radius Rcore=  1.554824

atom: _________________________________________________________________________

<basis_specs>
===============================================================================
C                    Z=   6    Mass=  12.010        Charge= 0.17977+309
Lmxo=1 Lmxkb= 3    BasisType=split      Semic=F
L=0  Nsemic=0  Cnfigmx=2
          n=1  nzeta=2  polorb=0
            splnorm:   0.15000    
               vcte:    0.0000    
               rinn:    0.0000    
                rcs:    0.0000      0.0000    
            lambdas:    1.0000      1.0000    
L=1  Nsemic=0  Cnfigmx=2
          n=1  nzeta=2  polorb=1
            splnorm:   0.15000    
               vcte:    0.0000    
               rinn:    0.0000    
                rcs:    0.0000      0.0000    
            lambdas:    1.0000      1.0000    
-------------------------------------------------------------------------------
L=0  Nkbl=1  erefs: 0.17977+309
L=1  Nkbl=1  erefs: 0.17977+309
L=2  Nkbl=1  erefs: 0.17977+309
L=3  Nkbl=1  erefs: 0.17977+309
===============================================================================
</basis_specs>

atom: Called for C                     (Z =   6)

read_vps: Pseudopotential generation method:
read_vps: ATM3      Troullier-Martins                       
Total valence charge:    4.00000

read_vps: Pseudopotential includes a core correction:
read_vps: Pseudo-core for xc-correction

xc_check: Exchange-correlation functional:
xc_check: GGA Perdew, Burke & Ernzerhof 1996
V l=0 = -2*Zval/r beyond r=  1.5227
V l=1 = -2*Zval/r beyond r=  1.5227
V l=2 = -2*Zval/r beyond r=  1.5227
V l=3 = -2*Zval/r beyond r=  1.5038
All V_l potentials equal beyond r=  1.5227
This should be close to max(r_c) in ps generation
All pots = -2*Zval/r beyond r=  1.5227

VLOCAL1: 99.0% of the norm of Vloc inside     18.722 Ry
VLOCAL1: 99.9% of the norm of Vloc inside     42.668 Ry
atom: Maximum radius for 4*pi*r*r*local-pseudopot. charge    1.83678
atom: Maximum radius for r*vlocal+2*Zval:    1.58088
GHOST: No ghost state for L =  0
GHOST: No ghost state for L =  1
GHOST: No ghost state for L =  2
GHOST: No ghost state for L =  3

KBgen: Kleinman-Bylander projectors: 
   l= 0   rc=  1.704034   el= -1.009801   Ekb=  5.335044   kbcos=  0.316824
   l= 1   rc=  1.704034   el= -0.388707   Ekb= -3.785862   kbcos= -0.366464
   l= 2   rc=  1.791422   el=  0.001971   Ekb= -0.970471   kbcos= -0.009212
   l= 3   rc=  1.859892   el=  0.003065   Ekb= -0.399525   kbcos= -0.001223

KBgen: Total number of  Kleinman-Bylander projectors:   16
atom: -------------------------------------------------------------------------

atom: SANKEY-TYPE ORBITALS:
atom: Selected multiple-zeta basis: split     

SPLIT: Orbitals with angular momentum L= 0

SPLIT: Basis orbitals for state 2s

SPLIT: PAO cut-off radius determined from an
SPLIT: energy shift=  0.007350 Ry

   izeta = 1
                 lambda =    1.000000
                     rc =    4.632753
                 energy =   -1.002270
                kinetic =    0.855760
    potential(screened) =   -1.858031
       potential(ionic) =   -5.417575

   izeta = 2
                 rmatch =    3.431921
              splitnorm =    0.150000
                 energy =   -0.867111
                kinetic =    1.300804
    potential(screened) =   -2.167915
       potential(ionic) =   -5.962684

SPLIT: Orbitals with angular momentum L= 1

SPLIT: Basis orbitals for state 2p

SPLIT: PAO cut-off radius determined from an
SPLIT: energy shift=  0.007350 Ry

   izeta = 1
                 lambda =    1.000000
                     rc =    5.658549
                 energy =   -0.381140
                kinetic =    2.399701
    potential(screened) =   -2.780841
       potential(ionic) =   -6.206085

   izeta = 2
                 rmatch =    3.653288
              splitnorm =    0.150000
                 energy =   -0.249149
                kinetic =    3.542762
    potential(screened) =   -3.791911
       potential(ionic) =   -7.581078

POLgen: Perturbative polarization orbital with L=  2

POLgen: Polarization orbital for state 2p

   izeta = 1
                     rc =    5.658549
                 energy =    1.109913
                kinetic =    2.304789
    potential(screened) =   -1.194876
       potential(ionic) =   -4.013592
atom: Total number of Sankey-type orbitals: 13

atm_pop: Valence configuration (for local Pseudopot. screening):
 2s( 2.00)                                                            
 2p( 2.00)                                                            
Vna: chval, zval:    4.00000   4.00000

Vna:  Cut-off radius for the neutral-atom potential:   5.658549
comcore: Pseudo-core radius Rcore=  1.791422

atom: _________________________________________________________________________

prinput: Basis input ----------------------------------------------------------

PAO.BasisType split     

%block ChemicalSpeciesLabel
    1    7 N                       # Species index, atomic number, species label
    2    6 C                       # Species index, atomic number, species label
%endblock ChemicalSpeciesLabel

%block PAO.Basis                 # Define Basis set
N                     2                    # Species label, number of l-shells
 n=2   0   2                         # n, l, Nzeta 
   4.071      2.905   
   1.000      1.000   
 n=2   1   2 P   1                   # n, l, Nzeta, Polarization, NzetaPol
   4.973      3.054   
   1.000      1.000   
C                     2                    # Species label, number of l-shells
 n=2   0   2                         # n, l, Nzeta 
   4.633      3.432   
   1.000      1.000   
 n=2   1   2 P   1                   # n, l, Nzeta, Polarization, NzetaPol
   5.659      3.653   
   1.000      1.000   
%endblock PAO.Basis

prinput: ----------------------------------------------------------------------

coor:   Atomic-coordinates input format  =     Fractional

siesta: Atomic coordinates (Bohr) and species
siesta:     -2.35420  17.38257   0.00000  1        1
siesta:     -0.02582  18.72698   0.00000  1        2
siesta:     -0.02582  21.41544   0.00000  1        3
siesta:      2.30256  22.75985   0.00000  1        4
siesta:      2.30256  25.44831   0.00000  1        5
siesta:     -4.68258  18.72698   0.00000  1        6
siesta:     -4.68258  21.41544   0.00000  1        7
siesta:     -2.35420  22.75985   0.00000  1        8
siesta:     -2.35420  25.44831   0.00000  1        9
siesta:     -7.01096  22.75985   0.00000  1       10
siesta:     -0.02582  26.79272   0.00000  1       11
siesta:     -4.68258  26.79272   0.00000  1       12
siesta:     -0.02582   2.59549   0.00000  2       13
siesta:     -0.02582   5.28395   0.00000  2       14
siesta:     -2.35420  38.89134   0.00000  2       15
siesta:     -2.35420  41.57980   0.00000  2       16
siesta:      2.30256  38.89134   0.00000  2       17
siesta:      2.30256  41.57980   0.00000  2       18
siesta:      4.63094  34.85847   0.00000  2       19
siesta:      4.63094  37.54693   0.00000  2       20
siesta:      6.95932  30.82560   0.00000  2       21
siesta:      6.95932  33.51406   0.00000  2       22
siesta:      9.28770  26.79272   0.00000  2       23
siesta:      9.28770  29.48119   0.00000  2       24
siesta:     -4.68258  34.85847   0.00000  2       25
siesta:     -4.68258  37.54693   0.00000  2       26
siesta:      2.30256   6.62836   0.00000  2       27
siesta:      2.30256   9.31683   0.00000  2       28
siesta:      4.63094  10.66124   0.00000  2       29
siesta:      4.63094  13.34970   0.00000  2       30
siesta:      6.95932  14.69411   0.00000  2       31
siesta:      6.95932  17.38257   0.00000  2       32
siesta:      9.28770  18.72698   0.00000  2       33
siesta:      9.28770  21.41544   0.00000  2       34
siesta:     11.61608  22.75985   0.00000  2       35
siesta:     11.61608  25.44831   0.00000  2       36
siesta:     -2.35420   6.62836   0.00000  2       37
siesta:     -2.35420   9.31683   0.00000  2       38
siesta:     -0.02582  10.66124   0.00000  2       39
siesta:     -0.02582  13.34970   0.00000  2       40
siesta:      2.30256  14.69411   0.00000  2       41
siesta:      2.30256  17.38257   0.00000  2       42
siesta:      4.63094  18.72698   0.00000  2       43
siesta:      4.63094  21.41544   0.00000  2       44
siesta:      6.95932  22.75985   0.00000  2       45
siesta:      6.95932  25.44831   0.00000  2       46
siesta:     -4.68258  10.66124   0.00000  2       47
siesta:     -4.68258  13.34970   0.00000  2       48
siesta:     -2.35420  14.69411   0.00000  2       49
siesta:     -7.01096  14.69411   0.00000  2       50
siesta:     -7.01096  17.38257   0.00000  2       51
siesta:     -9.33934  18.72698   0.00000  2       52
siesta:     -9.33934  21.41544   0.00000  2       53
siesta:     -7.01096  25.44831   0.00000  2       54
siesta:    -11.66772  22.75985   0.00000  2       55
siesta:    -11.66772  25.44831   0.00000  2       56
siesta:     -9.33934  26.79272   0.00000  2       57
siesta:     -9.33934  29.48119   0.00000  2       58
siesta:      4.63094  26.79272   0.00000  2       59
siesta:      4.63094  29.48119   0.00000  2       60
siesta:     -0.02582  29.48119   0.00000  2       61
siesta:     -4.68258  29.48119   0.00000  2       62
siesta:      2.30256  30.82560   0.00000  2       63
siesta:      2.30256  33.51406   0.00000  2       64
siesta:     -2.35420  30.82560   0.00000  2       65
siesta:     -2.35420  33.51406   0.00000  2       66
siesta:     -7.01096  30.82560   0.00000  2       67
siesta:     -7.01096  33.51406   0.00000  2       68
siesta:     -0.02582  34.85847   0.00000  2       69
siesta:     -0.02582  37.54693   0.00000  2       70
siesta:     -0.02582  42.92421   0.00000  2       71
siesta:     -0.02582  45.61267   0.00000  2       72

siesta: System type = slab      

initatomlists: Number of atoms, orbitals, and projectors:     72   936  1152

siesta: ******************** Simulation parameters ****************************
siesta:
siesta: The following are some of the parameters of the simulation.
siesta: A complete list of the parameters used, including default values,
siesta: can be found in file out.fdf
siesta:
redata: Non-Collinear-spin run           =     F
redata: SpinPolarized (Up/Down) run      =     F
redata: Number of spin components        =     1
redata: Long output                      =     F
redata: Number of Atomic Species         =        2
redata: Charge density info will appear in .RHO file
redata: Write Mulliken Pop.              =     NO
redata: Mesh Cutoff                      =   200.0000  Ry
redata: Net charge of the system         =     0.0000 |e|
redata: Max. number of SCF Iter          =      500
redata: SCF convergence failure will abort job
redata: Performing Pulay mixing using    =    10 iterations
redata: Mix DM in first SCF step ?       =     F
redata: Write Pulay info on disk?        =     F
redata: Discard 1st Pulay DM after  kick =     F
redata: New DM Mixing Weight             =     0.0500
redata: New DM Occupancy tolerance       = 0.000000000001
redata: No kicks to SCF
redata: DM Mixing Weight for Kicks       =     0.5000
redata: DM Tolerance for SCF             =     0.000100
redata: Require Energy convergence for SCF =     F
redata: DM Energy tolerance for SCF      =     0.000100 eV
redata: Require Harris convergence for SCF =     F
redata: DM Harris energy tolerance for SCF =     0.000100 eV
redata: Using Saved Data (generic)   =     F
redata: Use continuation files for DM    =     T
redata: Neglect nonoverlap interactions  =     F
redata: Method of Calculation            =     Diagonalization
redata: Divide and Conquer               =     T
redata: Electronic Temperature           =     0.0019  Ry
redata: Fix the spin of the system       =     F
redata: Dynamics option                  =     Verlet MD run
redata: Initial MD time step             =        1
redata:   Final MD time step             =        1
redata: Length of MD time step           =     1.0000  fs
redata: Initial Temperature of MD run    =     0.0000  K
redata: Perform a MD quench              =     F
redata: ***********************************************************************
Total number of electrons:   300.000000
Total ionic charge:   300.000000

* ProcessorY, Blocksize:    2  24

k-point displ. along   1 input, could be:     0.50    0.00
k-point displ. along   2 input, could be:     0.50    0.00
 Kpoints in:          231 . Kpoints trimmed:          231

siesta: k-grid: Number of k-points =   231
siesta: k-grid: Cutoff (effective) =     5.000 Ang
siesta: k-grid: Supercell and displacements
siesta: k-grid:   21   0   0      0.500
siesta: k-grid:    0  21   0      0.500
siesta: k-grid:    0   0   1      0.000
Naive supercell factors:     2    2    2

superc: Internal auxiliary supercell:     2 x     2 x     2  =       8
superc: Number of atoms, orbitals, and projectors:    576   7488   9216

* Maximum dynamic memory allocated =     4 MB

siesta:                 ==============================
                            Begin MD step =      1
                        ==============================

superc: Internal auxiliary supercell:     2 x     2 x     2  =       8
superc: Number of atoms, orbitals, and projectors:    576   7488   9216

outcell: Unit cell vectors (Ang):
       12.804619    7.392750    0.000000
        0.000000   14.785500    0.000000
        0.000000    0.000000   10.000000

outcell: Cell vector modules (Ang)   :   14.785500   14.785500   10.000000
outcell: Cell angles (23,13,12) (deg):     90.0000     90.0000     60.0000
outcell: Cell volume (Ang**3)        :   1893.2269
New_DM. Step:     1
Initializing Density Matrix...

InitMesh: MESH =   120 x   120 x    90 =     1296000
InitMesh: Mesh cutoff (required, used) =   200.000   223.865 Ry

* Maximum dynamic memory allocated =   193 MB

stepf: Fermi-Dirac step function

siesta: Program's energy decomposition (eV):
siesta: Ebs     =     -6068.278979
siesta: Eions   =     20331.973201
siesta: Ena     =      4839.014574
siesta: Ekin    =      7385.248291
siesta: Enl     =       291.216638
siesta: DEna    =        -0.000015
siesta: DUscf   =         0.000000
siesta: DUext   =         0.000000
siesta: Exc     =     -4463.348219
siesta: eta*DQ  =         0.000000
siesta: Emadel  =         0.000000
siesta: Emeta   =         0.000000
siesta: Emolmec =         0.000000
siesta: Ekinion =         0.000000
siesta: Eharris =    -11947.234366
siesta: Etot    =    -12279.841932
siesta: FreeEng =    -12279.841932

siesta: iscf   Eharris(eV)      E_KS(eV)   FreeEng(eV)   dDmax  Ef(eV)
siesta:    1   -11947.2344   -12279.8419   -12279.8419  6.2919 -7.1172
timer: Routine,Calls,Time,% = IterSCF        1    3388.558  99.66
elaps: Routine,Calls,Wall,% = IterSCF        1     424.444  99.66
siesta:    2   -18865.3714   -11035.8324   -11035.8360 16.5780 -8.5378
siesta:    3   -11902.0876   -12109.9572   -12109.9950  2.9609 -5.5280
siesta:    4   -11845.3906   -11977.4389   -11977.4766  1.4224 -4.8931
siesta:    5   -11801.0349   -11873.7049   -11873.8059  0.8488 -4.2087
siesta:    6   -11789.9819   -11837.1255   -11837.1425  0.8077 -3.9346
siesta:    7   -11782.2355   -11824.9188   -11824.9607  0.6749 -3.8887
siesta:    8   -11776.3579   -11798.1754   -11798.2020  0.5987 -3.9400
siesta:    9   -11775.3671   -11788.8580   -11788.9137  0.5476 -3.9132
siesta:   10   -11776.0787   -11770.2470   -11770.2963  0.4005 -4.0134
siesta:   11   -11775.3541   -11764.8709   -11764.9190  0.2886 -4.0281
siesta:   12   -11774.8689   -11759.6679   -11759.7459  0.2066 -3.9920
siesta:   13   -11774.5428   -11757.3257   -11757.4020  0.1896 -3.9587
siesta:   14   -11774.0949   -11759.3397   -11759.4085  0.1321 -3.9332
siesta:   15   -11773.8356   -11762.1659   -11762.2389  0.1176 -3.9430
siesta:   16   -11773.5558   -11766.4658   -11766.5289  0.1039 -3.9657
siesta:   17   -11773.4222   -11769.0024   -11769.0705  0.1035 -3.9952
siesta:   18   -11773.3861   -11769.4779   -11769.5594  0.0887 -3.9942
siesta:   19   -11773.3552   -11769.9985   -11770.0819  0.0645 -3.9788
siesta:   20   -11773.3433   -11770.4082   -11770.4895  0.0596 -3.9728
siesta:   21   -11773.3285   -11770.8989   -11770.9794  0.0410 -3.9670
siesta:   22   -11773.3214   -11771.6463   -11771.7264  0.0265 -3.9670
siesta:   23   -11773.3197   -11772.8420   -11772.9214  0.0138 -3.9653
siesta:   24   -11773.3192   -11773.3402   -11773.4195  0.0131 -3.9626
siesta:   25   -11773.3190   -11773.5356   -11773.6139  0.0120 -3.9619
siesta:   26   -11773.3184   -11773.2799   -11773.3583  0.0050 -3.9609
siesta:   27   -11773.3184   -11773.2753   -11773.3538  0.0033 -3.9605
siesta:   28   -11773.3184   -11773.2677   -11773.3462  0.0023 -3.9610
siesta:   29   -11773.3181   -11773.2528   -11773.3311  0.0017 -3.9619
siesta:   30   -11773.3182   -11773.2926   -11773.3712  0.0011 -3.9622
siesta:   31   -11773.3182   -11773.2994   -11773.3779  0.0008 -3.9623
siesta:   32   -11773.3182   -11773.3022   -11773.3807  0.0006 -3.9623
siesta:   33   -11773.3182   -11773.3265   -11773.4049  0.0003 -3.9623
siesta:   34   -11773.3182   -11773.3275   -11773.4059  0.0003 -3.9624
siesta:   35   -11773.3182   -11773.3264   -11773.4048  0.0002 -3.9623
siesta:   36   -11773.3182   -11773.3246   -11773.4031  0.0001 -3.9623
siesta:   37   -11773.3182   -11773.3249   -11773.4033  0.0001 -3.9623
siesta:   38   -11773.3182   -11773.3267   -11773.4052  0.0001 -3.9623

siesta: E_KS(eV) =           -11773.3256

siesta: E_KS - E_eggbox =    -11773.3256

siesta: Atomic forces (eV/Ang):
----------------------------------------
   Tot   -0.007266    0.020224    0.000000
----------------------------------------
   Max  684.977821
   Res  165.275170    sqrt( Sum f_i^2 / 3N )
----------------------------------------
   Max  684.977821    constrained

Stress-tensor-Voigt (kbar):     -720.67    -2889.23       -0.12       -6.09        0.00        0.00
(Free)E + p*V (eV/cell)   -10351.4804
Target enthalpy (eV/cell)   -11773.4041

siesta: Stress tensor (static) (eV/Ang**3):
        -0.449801   -0.003804    0.000000
        -0.003804   -1.803296    0.000000
         0.000000    0.000000   -0.000078

siesta: Pressure (static):       1203.34099019  kBar

siesta: Stress tensor (total) (eV/Ang**3):
        -0.449801   -0.003804    0.000000
        -0.003804   -1.803296    0.000000
         0.000000    0.000000   -0.000078

siesta: Pressure (total):       1203.34099019  kBar

siesta: Temp_ion =       0.000 K

* Maximum dynamic memory allocated =   210 MB
Computing bands...

siesta: Program's energy decomposition (eV):
siesta: Ebs     =     -4870.401539
siesta: Eions   =     20331.973201
siesta: Ena     =      4839.014574
siesta: Ekin    =     10365.379579
siesta: Enl     =     -1363.375186
siesta: DEna    =      -757.782672
siesta: DUscf   =       104.371364
siesta: DUext   =         0.000000
siesta: Exc     =     -4628.960065
siesta: eta*DQ  =         0.000000
siesta: Emadel  =         0.000000
siesta: Emeta   =         0.000000
siesta: Emolmec =         0.000000
siesta: Ekinion =         0.000000
siesta: Eharris =    -11773.318199
siesta: Etot    =    -11773.325608
siesta: FreeEng =    -11773.404079

siesta: Final energy (eV):
siesta:  Band Struct. =   -4870.401539
siesta:       Kinetic =   10365.379579
siesta:       Hartree =   33612.202995
siesta:    Ext. field =       0.000000
siesta:   Exch.-corr. =   -4628.960065
siesta:  Ion-electron =  -77204.208265
siesta:       Ion-ion =   26082.260148
siesta:       Ekinion =       0.000000
siesta:         Total =  -11773.325608

siesta: Atomic forces (eV/Ang):
siesta:      1  -35.485290  -16.310447    0.000000
siesta:      2   18.619822  684.977821    0.000000
siesta:      3    1.857229   -4.896160    0.000000
siesta:      4    0.478192   -0.580662    0.000000
siesta:      5    0.302285    0.931717    0.000000
siesta:      6   -1.458796    1.490632    0.000000
siesta:      7   -0.568572    0.676656    0.000000
siesta:      8   -1.738792   -0.320842    0.000000
siesta:      9   -0.772259    1.339178    0.000000
siesta:     10    0.368647    2.475488    0.000000
siesta:     11    0.503649    2.509188    0.000000
siesta:     12   -0.806230    0.400329    0.000000
siesta:     13    0.741885  544.864256    0.000000
siesta:     14   -0.611621 -126.510322    0.000000
siesta:     15    0.723296  128.640155    0.000000
siesta:     16  -21.023541 -553.178486    0.000000
siesta:     17   -0.659393  127.003531    0.000000
siesta:     18   14.990868 -547.082316    0.000000
siesta:     19   26.683798    6.309291    0.000000
siesta:     20   34.076123 -550.323434    0.000000
siesta:     21    2.635760    0.177016    0.000000
siesta:     22   -2.631004    1.554425    0.000000
siesta:     23    2.014903    2.296960    0.000000
siesta:     24   -1.437344    0.268215    0.000000
siesta:     25  -26.711672    7.156611    0.000000
siesta:     26  -34.844140 -550.472989    0.000000
siesta:     27   15.851448  547.699395    0.000000
siesta:     28   -1.525209 -127.205910    0.000000
siesta:     29   32.751118  549.738952    0.000000
siesta:     30   26.636482   -5.943336    0.000000
siesta:     31   -2.663434   -1.801999    0.000000
siesta:     32    2.479720   -0.025223    0.000000
siesta:     33   -1.303606   -0.455500    0.000000
siesta:     34    2.000743   -2.118724    0.000000
siesta:     35   -0.283747    7.335891    0.000000
siesta:     36   -0.256229   -7.387081    0.000000
siesta:     37  -16.459417  550.246550    0.000000
siesta:     38    1.240917 -128.403840    0.000000
siesta:     39   -1.106908  545.588486    0.000000
siesta:     40   -1.397945 -126.951936    0.000000
siesta:     41   24.567523  556.923541    0.000000
siesta:     42   24.886002  -11.511808    0.000000
siesta:     43   -1.953868    3.466867    0.000000
siesta:     44   -0.380366   -0.929206    0.000000
siesta:     45   -0.378604    1.052093    0.000000
siesta:     46   -0.476309   -0.981786    0.000000
siesta:     47  -33.094863  549.885280    0.000000
siesta:     48  -26.298391   -7.032321    0.000000
siesta:     49  -11.506651  560.602901    0.000000
siesta:     50    2.960873   -0.763683    0.000000
siesta:     51   -2.092543   -0.242411    0.000000
siesta:     52    1.210017   -0.021204    0.000000
siesta:     53   -1.613904   -1.986038    0.000000
siesta:     54    0.911388   -1.543345    0.000000
siesta:     55    0.813064    5.257426    0.000000
siesta:     56    0.101904   -5.726432    0.000000
siesta:     57   -0.997614    1.694365    0.000000
siesta:     58    0.803637    0.397385    0.000000
siesta:     59   -0.419718    0.838507    0.000000
siesta:     60   -2.221707   -3.317820    0.000000
siesta:     61   -0.116331 -565.660927    0.000000
siesta:     62    1.964904   -2.348740    0.000000
siesta:     63   22.300676    6.020470    0.000000
siesta:     64   21.661784 -557.224848    0.000000
siesta:     65  -23.645613    4.390010    0.000000
siesta:     66  -18.680964 -558.356265    0.000000
siesta:     67   -1.742471   -0.383163    0.000000
siesta:     68    2.941095    1.634329    0.000000
siesta:     69   -0.537237  127.785706    0.000000
siesta:     70    0.909834 -544.445099    0.000000
siesta:     71   -1.487414  120.720067    0.000000
siesta:     72   -9.607133 -641.885161    0.000000
siesta: ----------------------------------------
siesta:    Tot   -0.007266    0.020224    0.000000

siesta: Stress tensor (static) (eV/Ang**3):
siesta:    -0.449801   -0.003804    0.000000
siesta:    -0.003804   -1.803296    0.000000
siesta:     0.000000    0.000000   -0.000078

siesta: Cell volume =       1893.226884 Ang**3

siesta: Pressure (static):
siesta:                Solid            Molecule  Units
siesta:           0.00817998          0.12868186  Ry/Bohr**3
siesta:           0.75105825         11.81513052  eV/Ang**3
siesta:        1203.34099019      18930.13066631  kBar
(Free)E+ p_basis*V_orbitals  =      -11744.382024
(Free)Eharris+ p_basis*V_orbitals  =      -11744.373496

siesta: Electric dipole (a.u.)  =    0.000000    0.000000    0.000000
siesta: Electric dipole (Debye) =    0.000000    0.000000    0.000000

* Maximum dynamic memory allocated : Node    0 =   210 MB
* Maximum dynamic memory allocated : Node    1 =    73 MB
* Maximum dynamic memory allocated : Node    2 =    74 MB
* Maximum dynamic memory allocated : Node    3 =   198 MB
* Maximum dynamic memory allocated : Node    4 =   186 MB
* Maximum dynamic memory allocated : Node    5 =    71 MB
* Maximum dynamic memory allocated : Node    6 =    73 MB
* Maximum dynamic memory allocated : Node    7 =   173 MB

* Maximum memory occured during matrixMtoO                    

timer: CPU execution times:
timer:  Routine       Calls   Time/call    Tot.time        %
timer:  siesta            1  126439.390  126439.390   100.00
timer:  Setup             1       3.809       3.809     0.00
timer:  bands             3     243.491     730.474     0.58
timer:  writewave         1       0.045       0.045     0.00
timer:  KSV_init          1       0.005       0.005     0.00
timer:  IterMD            1  125699.854  125699.854    99.42
timer:  hsparse           1       0.284       0.284     0.00
timer:  overlap           1       6.707       6.707     0.01
timer:  IterSCF          38    3303.564  125535.418    99.29
timer:  kinefsm           2       3.462       6.925     0.01
timer:  nlefsm            2      17.564      35.128     0.03
timer:  DHSCF            39      81.472    3177.401     2.51
timer:  DHSCF1            1       0.745       0.745     0.00
timer:  DHSCF2            1      31.863      31.863     0.03
timer:  REORD           314       0.005       1.534     0.00
timer:  POISON           40       0.868      34.727     0.03
timer:  DHSCF3           39      79.859    3114.506     2.46
timer:  rhoofd           39      16.390     639.221     0.51
timer:  cellXC           39       3.364     131.188     0.10
timer:  vmat             39      37.080    1446.105     1.14
timer:  MolMec            2       0.001       0.001     0.00
timer:  diagon           38    3221.031  122399.176    96.80
timer:  c-eigval       8899       6.025   53613.884    42.40
timer:  c-buildHS      8899       0.047     415.526     0.33
timer:  cdiag         17677       6.139  108526.820    85.83
timer:  cdiag1        17677       0.385    6798.919     5.38
timer:  cdiag2        17677       1.767   31240.922    24.71
timer:  cdiag3        17677       3.737   66066.480    52.25
timer:  cdiag4        17677       0.150    2646.679     2.09
timer:  c-eigvec       8778       6.342   55672.738    44.03
timer:  c-buildD       8778       1.572   13798.510    10.91
timer:  DHSCF4            1      29.493      29.493     0.02
timer:  dfscf             1      27.596      27.596     0.02
timer:  overfsm           1       0.382       0.382     0.00
timer:  optical           1       4.612       4.612     0.00
  

elaps: ELAPSED times:
elaps:  Routine       Calls   Time/call    Tot.time        %
elaps:  siesta            1   15834.802   15834.802   100.00
elaps:  Setup             1       0.495       0.495     0.00
elaps:  bands             3      30.513      91.539     0.58
elaps:  writewave         1       0.006       0.006     0.00
elaps:  KSV_init          1       0.001       0.001     0.00
elaps:  IterMD            1   15742.161   15742.161    99.41
elaps:  hsparse           1       0.037       0.037     0.00
elaps:  overlap           1       0.902       0.902     0.01
elaps:  IterSCF          38     413.729   15721.685    99.29
elaps:  kinefsm           2       0.464       0.928     0.01
elaps:  nlefsm            2       2.164       4.328     0.03
elaps:  DHSCF            39      10.310     402.104     2.54
elaps:  DHSCF1            1       0.095       0.095     0.00
elaps:  DHSCF2            1       3.988       3.988     0.03
elaps:  REORD           314       0.001       0.211     0.00
elaps:  POISON           40       0.109       4.374     0.03
elaps:  DHSCF3           39      10.002     390.072     2.46
elaps:  rhoofd           39       4.777     186.321     1.18
elaps:  cellXC           39       0.421      16.415     0.10
elaps:  vmat             39       4.644     181.124     1.14
elaps:  MolMec            2       0.000       0.000     0.00
elaps:  diagon           38     403.384   15328.605    96.80
elaps:  c-eigval       8899       0.754    6714.205    42.40
elaps:  c-buildHS      8899       0.006      56.991     0.36
elaps:  cdiag         17677       0.767   13554.362    85.60
elaps:  cdiag1        17677       0.048     852.014     5.38
elaps:  cdiag2        17677       0.221    3913.299    24.71
elaps:  cdiag3        17677       0.469    8284.867    52.32
elaps:  cdiag4        17677       0.019     331.253     2.09
elaps:  c-eigvec       8778       0.791    6943.869    43.85
elaps:  c-buildD       8778       0.200    1755.928    11.09
elaps:  DHSCF4            1       7.851       7.851     0.05
elaps:  dfscf             1       7.435       7.435     0.05
elaps:  overfsm           1       0.049       0.049     0.00
elaps:  optical           1       0.001       0.001     0.00
  
>> End of run:   7-MAY-2016   7:56:57
