Siesta Version:                                        siesta-3.2-pl-3
Architecture  : x86_64-unknown-linux-gnu--unknown
Compiler flags: mpiifort -g -O2 -fPIC -xSSE4.1 -fp-model source -shared-intel 
PARALLEL version

* Running on    8 nodes in parallel
>> Start of run:  24-APR-2016   3:19:34

                           ***********************       
                           *  WELCOME TO SIESTA  *       
                           ***********************       

reinit: Reading from standard input
************************** Dump of input data file ****************************
#(1) General system descriptors
SystemName            GRP_doping    # Descriptive name of the system
SystemLabel           GRP_doping    # Short name for naming files
%include STRUCT.fdf
%include KPT.fdf
%include BASIS.fdf
#%include TS.fdf # for transiesta calculation
#(4) DFT, Grid, SCF
XC.functional         GGA           # LDA or GGA (default = LDA)
XC.authors            PBE           # CA (Ceperley-Aldr) = PZ
                                    #    (Perdew-Zunger) - LDA - Default
                                    # PW92 (Perdew-Wang-92) - LDA
                                    # PBE (Perdew-Burke-Ernzerhof) - GGA
MeshCutoff            200.000000    Ry      # Default: 50.0 Ry ~ 0.444 Bohr
                                    #         100.0 Ry ~ 0.314 Bohr
MaxSCFIterations      500           # Default: 50
DM.MixingWeight       0.05          # Default: 0.25
DM.NumberPulay        10            # Default: 0
DM.PulayOnFile        F             # SystemLabel.P1, SystemLabel.P2
DM.Tolerance          1.d-4         # Default: 1.d-4
DM.UseSaveDM          .true.        # because of the bug
SCFMustConverge       .true.
NeglNonOverlapInt     F             # Default: F
#(5) Eigenvalue problem: order-N or diagonalization
SolutionMethod        Diagon        # or Transiesta
ElectronicTemperature 300.0 K       # Default: 300.0 K
#(6) Molecular dynamics and relaxations
#MD.TypeOfRun          CG            # Type of dynamics:
#MD.VariableCell       F
#MD.NumCGsteps         0           # 0 for single-point / 100 for gopt
#MD.MaxCGDispl         0.2 Bohr      # Default: 0.2 Bohr
#MD.MaxForceTol        0.02 eV/Ang   # Default: 0.04 eV/Ang
#MD.MaxStressTol       1.0 GPa       # Default: 1.0 GPa
# Geometry Constraints
#%block GeometryConstraints
#	position from 1 to 44
#%endblock GeometryConstraints
BandLinesScale   pi/a
%block BandLines
 1   0.00000000  0.00000000  0.00000000
50   0.00000000  0.07809418  0.00000000
50   0.04509075  0.07809242  0.00000000
20   0.00000000  0.00000000  0.00000000
%endblock BandLines
************************** End of input data file *****************************

reinit: -----------------------------------------------------------------------
reinit: System Name: GRP_doping
reinit: -----------------------------------------------------------------------
reinit: System Label: GRP_doping                                                  
reinit: -----------------------------------------------------------------------

initatom: Reading input for the pseudopotentials and atomic orbitals ----------
 Species number:            1  Label: N Atomic number:           7
 Species number:            2  Label: C Atomic number:           6
Ground state valence configuration:   2s02  2p03
Reading pseudopotential information in formatted form from N.psf

Valence configuration for pseudopotential generation:
2s( 2.00) rc: 1.48
2p( 3.00) rc: 1.48
3d( 0.00) rc: 1.48
4f( 0.00) rc: 1.48
Ground state valence configuration:   2s02  2p02
Reading pseudopotential information in formatted form from C.psf

Valence configuration for pseudopotential generation:
2s( 2.00) rc: 1.54
2p( 2.00) rc: 1.54
3d( 0.00) rc: 1.54
4f( 0.00) rc: 1.54
For N, standard SIESTA heuristics set lmxkb to 3
 (one more than the basis l, including polarization orbitals).
Use PS.lmax or PS.KBprojectors blocks to override.
For C, standard SIESTA heuristics set lmxkb to 3
 (one more than the basis l, including polarization orbitals).
Use PS.lmax or PS.KBprojectors blocks to override.

<basis_specs>
===============================================================================
N                    Z=   7    Mass=  14.010        Charge= 0.17977+309
Lmxo=1 Lmxkb= 3    BasisType=split      Semic=F
L=0  Nsemic=0  Cnfigmx=2
          n=1  nzeta=2  polorb=0
            splnorm:   0.15000    
               vcte:    0.0000    
               rinn:    0.0000    
                rcs:    0.0000      0.0000    
            lambdas:    1.0000      1.0000    
L=1  Nsemic=0  Cnfigmx=2
          n=1  nzeta=2  polorb=1
            splnorm:   0.15000    
               vcte:    0.0000    
               rinn:    0.0000    
                rcs:    0.0000      0.0000    
            lambdas:    1.0000      1.0000    
-------------------------------------------------------------------------------
L=0  Nkbl=1  erefs: 0.17977+309
L=1  Nkbl=1  erefs: 0.17977+309
L=2  Nkbl=1  erefs: 0.17977+309
L=3  Nkbl=1  erefs: 0.17977+309
===============================================================================
</basis_specs>

atom: Called for N                     (Z =   7)

read_vps: Pseudopotential generation method:
read_vps: ATM3      Troullier-Martins                       
Total valence charge:    5.00000

read_vps: Pseudopotential includes a core correction:
read_vps: Pseudo-core for xc-correction

xc_check: Exchange-correlation functional:
xc_check: GGA Perdew, Burke & Ernzerhof 1996
V l=0 = -2*Zval/r beyond r=  1.4606
V l=1 = -2*Zval/r beyond r=  1.4606
V l=2 = -2*Zval/r beyond r=  1.4606
V l=3 = -2*Zval/r beyond r=  1.4606
All V_l potentials equal beyond r=  1.4606
This should be close to max(r_c) in ps generation
All pots = -2*Zval/r beyond r=  1.4606

VLOCAL1: 99.0% of the norm of Vloc inside     20.347 Ry
VLOCAL1: 99.9% of the norm of Vloc inside     46.372 Ry
atom: Maximum radius for 4*pi*r*r*local-pseudopot. charge    1.76189
atom: Maximum radius for r*vlocal+2*Zval:    1.53550
GHOST: No ghost state for L =  0
GHOST: No ghost state for L =  1
GHOST: No ghost state for L =  2
GHOST: No ghost state for L =  3

KBgen: Kleinman-Bylander projectors: 
   l= 0   rc=  1.634559   el= -1.363963   Ekb=  5.296955   kbcos=  0.335621
   l= 1   rc=  1.614250   el= -0.521451   Ekb= -5.259161   kbcos= -0.433408
   l= 2   rc=  1.718383   el=  0.001991   Ekb= -1.271464   kbcos= -0.007566
   l= 3   rc=  1.761893   el=  0.003093   Ekb= -0.494769   kbcos= -0.001015

KBgen: Total number of  Kleinman-Bylander projectors:   16
atom: -------------------------------------------------------------------------

atom: SANKEY-TYPE ORBITALS:
atom: Selected multiple-zeta basis: split     

SPLIT: Orbitals with angular momentum L= 0

SPLIT: Basis orbitals for state 2s

SPLIT: PAO cut-off radius determined from an
SPLIT: energy shift=  0.007350 Ry

   izeta = 1
                 lambda =    1.000000
                     rc =    4.071465
                 energy =   -1.356470
                kinetic =    1.176977
    potential(screened) =   -2.533447
       potential(ionic) =   -8.057990

   izeta = 2
                 rmatch =    2.905100
              splitnorm =    0.150000
                 energy =   -1.158343
                kinetic =    1.813009
    potential(screened) =   -2.971352
       potential(ionic) =   -8.901931

SPLIT: Orbitals with angular momentum L= 1

SPLIT: Basis orbitals for state 2p

SPLIT: PAO cut-off radius determined from an
SPLIT: energy shift=  0.007350 Ry

   izeta = 1
                 lambda =    1.000000
                     rc =    4.972977
                 energy =   -0.513884
                kinetic =    3.441732
    potential(screened) =   -3.955616
       potential(ionic) =   -9.287901

   izeta = 2
                 rmatch =    3.054066
              splitnorm =    0.150000
                 energy =   -0.318226
                kinetic =    5.125348
    potential(screened) =   -5.443573
       potential(ionic) =  -11.380999

POLgen: Perturbative polarization orbital with L=  2

POLgen: Polarization orbital for state 2p

   izeta = 1
                     rc =    4.972977
                 energy =    1.607437
                kinetic =    3.268125
    potential(screened) =   -1.660688
       potential(ionic) =   -5.973652
atom: Total number of Sankey-type orbitals: 13

atm_pop: Valence configuration (for local Pseudopot. screening):
 2s( 2.00)                                                            
 2p( 3.00)                                                            
Vna: chval, zval:    5.00000   5.00000

Vna:  Cut-off radius for the neutral-atom potential:   4.972977
comcore: Pseudo-core radius Rcore=  1.554824

atom: _________________________________________________________________________

<basis_specs>
===============================================================================
C                    Z=   6    Mass=  12.010        Charge= 0.17977+309
Lmxo=1 Lmxkb= 3    BasisType=split      Semic=F
L=0  Nsemic=0  Cnfigmx=2
          n=1  nzeta=2  polorb=0
            splnorm:   0.15000    
               vcte:    0.0000    
               rinn:    0.0000    
                rcs:    0.0000      0.0000    
            lambdas:    1.0000      1.0000    
L=1  Nsemic=0  Cnfigmx=2
          n=1  nzeta=2  polorb=1
            splnorm:   0.15000    
               vcte:    0.0000    
               rinn:    0.0000    
                rcs:    0.0000      0.0000    
            lambdas:    1.0000      1.0000    
-------------------------------------------------------------------------------
L=0  Nkbl=1  erefs: 0.17977+309
L=1  Nkbl=1  erefs: 0.17977+309
L=2  Nkbl=1  erefs: 0.17977+309
L=3  Nkbl=1  erefs: 0.17977+309
===============================================================================
</basis_specs>

atom: Called for C                     (Z =   6)

read_vps: Pseudopotential generation method:
read_vps: ATM3      Troullier-Martins                       
Total valence charge:    4.00000

read_vps: Pseudopotential includes a core correction:
read_vps: Pseudo-core for xc-correction

xc_check: Exchange-correlation functional:
xc_check: GGA Perdew, Burke & Ernzerhof 1996
V l=0 = -2*Zval/r beyond r=  1.5227
V l=1 = -2*Zval/r beyond r=  1.5227
V l=2 = -2*Zval/r beyond r=  1.5227
V l=3 = -2*Zval/r beyond r=  1.5038
All V_l potentials equal beyond r=  1.5227
This should be close to max(r_c) in ps generation
All pots = -2*Zval/r beyond r=  1.5227

VLOCAL1: 99.0% of the norm of Vloc inside     18.722 Ry
VLOCAL1: 99.9% of the norm of Vloc inside     42.668 Ry
atom: Maximum radius for 4*pi*r*r*local-pseudopot. charge    1.83678
atom: Maximum radius for r*vlocal+2*Zval:    1.58088
GHOST: No ghost state for L =  0
GHOST: No ghost state for L =  1
GHOST: No ghost state for L =  2
GHOST: No ghost state for L =  3

KBgen: Kleinman-Bylander projectors: 
   l= 0   rc=  1.704034   el= -1.009801   Ekb=  5.335044   kbcos=  0.316824
   l= 1   rc=  1.704034   el= -0.388707   Ekb= -3.785862   kbcos= -0.366464
   l= 2   rc=  1.791422   el=  0.001971   Ekb= -0.970471   kbcos= -0.009212
   l= 3   rc=  1.859892   el=  0.003065   Ekb= -0.399525   kbcos= -0.001223

KBgen: Total number of  Kleinman-Bylander projectors:   16
atom: -------------------------------------------------------------------------

atom: SANKEY-TYPE ORBITALS:
atom: Selected multiple-zeta basis: split     

SPLIT: Orbitals with angular momentum L= 0

SPLIT: Basis orbitals for state 2s

SPLIT: PAO cut-off radius determined from an
SPLIT: energy shift=  0.007350 Ry

   izeta = 1
                 lambda =    1.000000
                     rc =    4.632753
                 energy =   -1.002270
                kinetic =    0.855760
    potential(screened) =   -1.858031
       potential(ionic) =   -5.417575

   izeta = 2
                 rmatch =    3.431921
              splitnorm =    0.150000
                 energy =   -0.867111
                kinetic =    1.300804
    potential(screened) =   -2.167915
       potential(ionic) =   -5.962684

SPLIT: Orbitals with angular momentum L= 1

SPLIT: Basis orbitals for state 2p

SPLIT: PAO cut-off radius determined from an
SPLIT: energy shift=  0.007350 Ry

   izeta = 1
                 lambda =    1.000000
                     rc =    5.658549
                 energy =   -0.381140
                kinetic =    2.399701
    potential(screened) =   -2.780841
       potential(ionic) =   -6.206085

   izeta = 2
                 rmatch =    3.653288
              splitnorm =    0.150000
                 energy =   -0.249149
                kinetic =    3.542762
    potential(screened) =   -3.791911
       potential(ionic) =   -7.581078

POLgen: Perturbative polarization orbital with L=  2

POLgen: Polarization orbital for state 2p

   izeta = 1
                     rc =    5.658549
                 energy =    1.109913
                kinetic =    2.304789
    potential(screened) =   -1.194876
       potential(ionic) =   -4.013592
atom: Total number of Sankey-type orbitals: 13

atm_pop: Valence configuration (for local Pseudopot. screening):
 2s( 2.00)                                                            
 2p( 2.00)                                                            
Vna: chval, zval:    4.00000   4.00000

Vna:  Cut-off radius for the neutral-atom potential:   5.658549
comcore: Pseudo-core radius Rcore=  1.791422

atom: _________________________________________________________________________

prinput: Basis input ----------------------------------------------------------

PAO.BasisType split     

%block ChemicalSpeciesLabel
    1    7 N                       # Species index, atomic number, species label
    2    6 C                       # Species index, atomic number, species label
%endblock ChemicalSpeciesLabel

%block PAO.Basis                 # Define Basis set
N                     2                    # Species label, number of l-shells
 n=2   0   2                         # n, l, Nzeta 
   4.071      2.905   
   1.000      1.000   
 n=2   1   2 P   1                   # n, l, Nzeta, Polarization, NzetaPol
   4.973      3.054   
   1.000      1.000   
C                     2                    # Species label, number of l-shells
 n=2   0   2                         # n, l, Nzeta 
   4.633      3.432   
   1.000      1.000   
 n=2   1   2 P   1                   # n, l, Nzeta, Polarization, NzetaPol
   5.659      3.653   
   1.000      1.000   
%endblock PAO.Basis

prinput: ----------------------------------------------------------------------

coor:   Atomic-coordinates input format  =     Fractional

siesta: Atomic coordinates (Bohr) and species
siesta:     -0.02582   2.59549   0.00000  1        1
siesta:     -0.02582   5.28395   0.00000  1        2
siesta:     -2.35420  41.57980   0.00000  1        3
siesta:      2.30256  41.57980   0.00000  1        4
siesta:      9.28770  26.79272   0.00000  1        5
siesta:      2.30256   6.62836   0.00000  1        6
siesta:     -2.35420   6.62836   0.00000  1        7
siesta:     -0.02582  13.34970   0.00000  1        8
siesta:      2.30256  14.69411   0.00000  1        9
siesta:      2.30256  17.38257   0.00000  1       10
siesta:      4.63094  18.72698   0.00000  1       11
siesta:      4.63094  21.41544   0.00000  1       12
siesta:      6.95932  22.75985   0.00000  1       13
siesta:      6.95932  25.44831   0.00000  1       14
siesta:     -9.33934  21.41544   0.00000  1       15
siesta:     -7.01096  22.75985   0.00000  1       16
siesta:     -7.01096  25.44831   0.00000  1       17
siesta:     -4.68258  26.79272   0.00000  1       18
siesta:     -4.68258  29.48119   0.00000  1       19
siesta:     -2.35420  30.82560   0.00000  1       20
siesta:     -2.35420  33.51406   0.00000  1       21
siesta:     -0.02582  34.85847   0.00000  1       22
siesta:     -0.02582  42.92421   0.00000  1       23
siesta:     -0.02582  45.61267   0.00000  1       24
siesta:     -2.35420  38.89134   0.00000  2       25
siesta:      2.30256  38.89134   0.00000  2       26
siesta:      4.63094  34.85847   0.00000  2       27
siesta:      4.63094  37.54693   0.00000  2       28
siesta:      6.95932  30.82560   0.00000  2       29
siesta:      6.95932  33.51406   0.00000  2       30
siesta:      9.28770  29.48119   0.00000  2       31
siesta:     -4.68258  34.85847   0.00000  2       32
siesta:     -4.68258  37.54693   0.00000  2       33
siesta:      2.30256   9.31683   0.00000  2       34
siesta:      4.63094  10.66124   0.00000  2       35
siesta:      4.63094  13.34970   0.00000  2       36
siesta:      6.95932  14.69411   0.00000  2       37
siesta:      6.95932  17.38257   0.00000  2       38
siesta:      9.28770  18.72698   0.00000  2       39
siesta:      9.28770  21.41544   0.00000  2       40
siesta:     11.61608  22.75985   0.00000  2       41
siesta:     11.61608  25.44831   0.00000  2       42
siesta:     -2.35420   9.31683   0.00000  2       43
siesta:     -0.02582  10.66124   0.00000  2       44
siesta:     -4.68258  10.66124   0.00000  2       45
siesta:     -4.68258  13.34970   0.00000  2       46
siesta:     -2.35420  14.69411   0.00000  2       47
siesta:     -2.35420  17.38257   0.00000  2       48
siesta:     -0.02582  18.72698   0.00000  2       49
siesta:     -0.02582  21.41544   0.00000  2       50
siesta:      2.30256  22.75985   0.00000  2       51
siesta:      2.30256  25.44831   0.00000  2       52
siesta:     -7.01096  14.69411   0.00000  2       53
siesta:     -7.01096  17.38257   0.00000  2       54
siesta:     -4.68258  18.72698   0.00000  2       55
siesta:     -4.68258  21.41544   0.00000  2       56
siesta:     -2.35420  22.75985   0.00000  2       57
siesta:     -2.35420  25.44831   0.00000  2       58
siesta:     -9.33934  18.72698   0.00000  2       59
siesta:    -11.66772  22.75985   0.00000  2       60
siesta:    -11.66772  25.44831   0.00000  2       61
siesta:     -9.33934  26.79272   0.00000  2       62
siesta:     -9.33934  29.48119   0.00000  2       63
siesta:      4.63094  26.79272   0.00000  2       64
siesta:      4.63094  29.48119   0.00000  2       65
siesta:     -0.02582  26.79272   0.00000  2       66
siesta:     -0.02582  29.48119   0.00000  2       67
siesta:      2.30256  30.82560   0.00000  2       68
siesta:      2.30256  33.51406   0.00000  2       69
siesta:     -7.01096  30.82560   0.00000  2       70
siesta:     -7.01096  33.51406   0.00000  2       71
siesta:     -0.02582  37.54693   0.00000  2       72

siesta: System type = slab      

initatomlists: Number of atoms, orbitals, and projectors:     72   936  1152

siesta: ******************** Simulation parameters ****************************
siesta:
siesta: The following are some of the parameters of the simulation.
siesta: A complete list of the parameters used, including default values,
siesta: can be found in file out.fdf
siesta:
redata: Non-Collinear-spin run           =     F
redata: SpinPolarized (Up/Down) run      =     F
redata: Number of spin components        =     1
redata: Long output                      =     F
redata: Number of Atomic Species         =        2
redata: Charge density info will appear in .RHO file
redata: Write Mulliken Pop.              =     NO
redata: Mesh Cutoff                      =   200.0000  Ry
redata: Net charge of the system         =     0.0000 |e|
redata: Max. number of SCF Iter          =      500
redata: SCF convergence failure will abort job
redata: Performing Pulay mixing using    =    10 iterations
redata: Mix DM in first SCF step ?       =     F
redata: Write Pulay info on disk?        =     F
redata: Discard 1st Pulay DM after  kick =     F
redata: New DM Mixing Weight             =     0.0500
redata: New DM Occupancy tolerance       = 0.000000000001
redata: No kicks to SCF
redata: DM Mixing Weight for Kicks       =     0.5000
redata: DM Tolerance for SCF             =     0.000100
redata: Require Energy convergence for SCF =     F
redata: DM Energy tolerance for SCF      =     0.000100 eV
redata: Require Harris convergence for SCF =     F
redata: DM Harris energy tolerance for SCF =     0.000100 eV
redata: Using Saved Data (generic)   =     F
redata: Use continuation files for DM    =     T
redata: Neglect nonoverlap interactions  =     F
redata: Method of Calculation            =     Diagonalization
redata: Divide and Conquer               =     T
redata: Electronic Temperature           =     0.0019  Ry
redata: Fix the spin of the system       =     F
redata: Dynamics option                  =     Verlet MD run
redata: Initial MD time step             =        1
redata:   Final MD time step             =        1
redata: Length of MD time step           =     1.0000  fs
redata: Initial Temperature of MD run    =     0.0000  K
redata: Perform a MD quench              =     F
redata: ***********************************************************************
Total number of electrons:   312.000000
Total ionic charge:   312.000000

* ProcessorY, Blocksize:    2  24

k-point displ. along   1 input, could be:     0.50    0.00
k-point displ. along   2 input, could be:     0.50    0.00
 Kpoints in:          231 . Kpoints trimmed:          231

siesta: k-grid: Number of k-points =   231
siesta: k-grid: Cutoff (effective) =     5.000 Ang
siesta: k-grid: Supercell and displacements
siesta: k-grid:   21   0   0      0.500
siesta: k-grid:    0  21   0      0.500
siesta: k-grid:    0   0   1      0.000
Naive supercell factors:     2    2    2

superc: Internal auxiliary supercell:     2 x     2 x     2  =       8
superc: Number of atoms, orbitals, and projectors:    576   7488   9216

* Maximum dynamic memory allocated =     4 MB

siesta:                 ==============================
                            Begin MD step =      1
                        ==============================

superc: Internal auxiliary supercell:     2 x     2 x     2  =       8
superc: Number of atoms, orbitals, and projectors:    576   7488   9216

outcell: Unit cell vectors (Ang):
       12.804619    7.392750    0.000000
        0.000000   14.785500    0.000000
        0.000000    0.000000   10.000000

outcell: Cell vector modules (Ang)   :   14.785500   14.785500   10.000000
outcell: Cell angles (23,13,12) (deg):     90.0000     90.0000     60.0000
outcell: Cell volume (Ang**3)        :   1893.2269
New_DM. Step:     1
Initializing Density Matrix...

InitMesh: MESH =   120 x   120 x    90 =     1296000
InitMesh: Mesh cutoff (required, used) =   200.000   223.865 Ry

* Maximum dynamic memory allocated =   179 MB

stepf: Fermi-Dirac step function

siesta: Program's energy decomposition (eV):
siesta: Ebs     =     -6390.891608
siesta: Eions   =     22260.935331
siesta: Ena     =      4992.318744
siesta: Ekin    =      8392.322035
siesta: Enl     =       -95.524676
siesta: DEna    =        -0.000015
siesta: DUscf   =         0.000000
siesta: DUext   =         0.000000
siesta: Exc     =     -4787.081904
siesta: eta*DQ  =         0.000000
siesta: Emadel  =         0.000000
siesta: Emeta   =         0.000000
siesta: Emolmec =         0.000000
siesta: Ekinion =         0.000000
siesta: Eharris =    -13310.125631
siesta: Etot    =    -13758.901147
siesta: FreeEng =    -13758.901147

siesta: iscf   Eharris(eV)      E_KS(eV)   FreeEng(eV)   dDmax  Ef(eV)
siesta:    1   -13310.1256   -13758.9011   -13758.9011  4.3666 -6.3418
timer: Routine,Calls,Time,% = IterSCF        1    4056.994  99.72
elaps: Routine,Calls,Wall,% = IterSCF        1     507.684  99.72
siesta:    2   -16693.8177   -12758.4010   -12758.4497  9.4209 -4.6320
siesta:    3   -13247.1566   -13496.3000   -13496.3318  1.9084 -4.8810
siesta:    4   -13199.1274   -13397.0500   -13397.0797  1.2717 -4.5344
siesta:    5   -13180.9392   -13313.7192   -13313.7954  1.1293 -4.1460
siesta:    6   -13158.7398   -13277.7552   -13277.8524  0.7542 -3.8776
siesta:    7   -13156.5607   -13261.9090   -13261.9562  0.7181 -3.9038
siesta:    8   -13153.6625   -13242.9755   -13243.1018  0.5572 -3.7119
siesta:    9   -13154.1932   -13191.4795   -13191.5381  0.3341 -3.5664
siesta:   10   -13152.9230   -13177.3757   -13177.4478  0.2794 -3.6188
siesta:   11   -13152.3557   -13164.5747   -13164.6843  0.1713 -3.6677
siesta:   12   -13152.6588   -13144.7365   -13144.8153  0.2206 -3.7725
siesta:   13   -13152.2149   -13142.7051   -13142.7965  0.2138 -3.7691
siesta:   14   -13151.9168   -13147.4548   -13147.5731  0.1831 -3.7468
siesta:   15   -13151.8124   -13149.4209   -13149.5054  0.1803 -3.7491
siesta:   16   -13151.6721   -13150.1435   -13150.2212  0.0742 -3.7150
siesta:   17   -13151.6100   -13149.5887   -13149.6790  0.0426 -3.7422
siesta:   18   -13151.5908   -13149.0705   -13149.1816  0.0262 -3.7317
siesta:   19   -13151.5859   -13148.9966   -13149.1086  0.0635 -3.7220
siesta:   20   -13151.5718   -13149.2380   -13149.3419  0.0269 -3.7241
siesta:   21   -13151.5672   -13150.0725   -13150.1824  0.0264 -3.7283
siesta:   22   -13151.5662   -13151.2763   -13151.3859  0.0207 -3.7230
siesta:   23   -13151.5593   -13151.8824   -13151.9908  0.0190 -3.7292
siesta:   24   -13151.5639   -13151.9111   -13152.0236  0.0181 -3.7294
siesta:   25   -13151.5614   -13152.1650   -13152.2734  0.0176 -3.7323
siesta:   26   -13151.5573   -13152.3068   -13152.4174  0.0150 -3.7363
siesta:   27   -13151.5603   -13151.8043   -13151.9192  0.0139 -3.7347
siesta:   28   -13151.5584   -13151.7087   -13151.8196  0.0038 -3.7349
siesta:   29   -13151.5583   -13151.6635   -13151.7760  0.0021 -3.7334
siesta:   30   -13151.5583   -13151.6640   -13151.7764  0.0017 -3.7325
siesta:   31   -13151.5579   -13151.6568   -13151.7692  0.0006 -3.7327
siesta:   32   -13151.5580   -13151.6351   -13151.7479  0.0007 -3.7325
siesta:   33   -13151.5580   -13151.6297   -13151.7424  0.0003 -3.7326
siesta:   34   -13151.5581   -13151.6267   -13151.7393  0.0004 -3.7325
siesta:   35   -13151.5580   -13151.6083   -13151.7208  0.0002 -3.7325
siesta:   36   -13151.5580   -13151.5927   -13151.7054  0.0002 -3.7326
siesta:   37   -13151.5580   -13151.5748   -13151.6874  0.0002 -3.7326
siesta:   38   -13151.5580   -13151.5701   -13151.6827  0.0002 -3.7326
siesta:   39   -13151.5580   -13151.5676   -13151.6803  0.0002 -3.7326
siesta:   40   -13151.5580   -13151.5635   -13151.6761  0.0001 -3.7326

siesta: E_KS(eV) =           -13151.5622

siesta: E_KS - E_eggbox =    -13151.5622

siesta: Atomic forces (eV/Ang):
----------------------------------------
   Tot   -0.000701   -0.017786    0.000000
----------------------------------------
   Max  774.732828
   Res  190.742216    sqrt( Sum f_i^2 / 3N )
----------------------------------------
   Max  774.732828    constrained

Stress-tensor-Voigt (kbar):     -677.48    -3423.19       -0.08        3.28        0.00        0.00
(Free)E + p*V (eV/cell)   -11536.4627
Target enthalpy (eV/cell)   -13151.6748

siesta: Stress tensor (static) (eV/Ang**3):
        -0.422847    0.002048    0.000000
         0.002048   -2.136563    0.000000
         0.000000    0.000000   -0.000048

siesta: Pressure (static):       1366.91649424  kBar

siesta: Stress tensor (total) (eV/Ang**3):
        -0.422847    0.002048    0.000000
         0.002048   -2.136563    0.000000
         0.000000    0.000000   -0.000048

siesta: Pressure (total):       1366.91649424  kBar

siesta: Temp_ion =       0.000 K

* Maximum dynamic memory allocated =   196 MB
Computing bands...

siesta: Program's energy decomposition (eV):
siesta: Ebs     =     -5225.554506
siesta: Eions   =     22260.935331
siesta: Ena     =      4992.318744
siesta: Ekin    =     11660.296763
siesta: Enl     =     -1868.725695
siesta: DEna    =      -822.439012
siesta: DUscf   =       114.820917
siesta: DUext   =         0.000000
siesta: Exc     =     -4966.898544
siesta: eta*DQ  =         0.000000
siesta: Emadel  =         0.000000
siesta: Emeta   =         0.000000
siesta: Emolmec =         0.000000
siesta: Ekinion =         0.000000
siesta: Eharris =    -13151.558048
siesta: Etot    =    -13151.562159
siesta: FreeEng =    -13151.674806

siesta: Final energy (eV):
siesta:  Band Struct. =   -5225.554506
siesta:       Kinetic =   11660.296763
siesta:       Hartree =   38059.157443
siesta:    Ext. field =       0.000000
siesta:   Exch.-corr. =   -4966.898544
siesta:  Ion-electron =  -87347.199739
siesta:       Ion-ion =   29443.081918
siesta:       Ekinion =       0.000000
siesta:         Total =  -13151.562159

siesta: Atomic forces (eV/Ang):
siesta:      1   -0.419671  645.286147    0.000000
siesta:      2    0.284173 -109.541925    0.000000
siesta:      3  -22.043805 -664.677728    0.000000
siesta:      4   20.015742 -755.386432    0.000000
siesta:      5    2.925692    3.184806    0.000000
siesta:      6   22.183016  664.631565    0.000000
siesta:      7  -19.909537  755.386500    0.000000
siesta:      8   -2.043172 -118.587901    0.000000
siesta:      9    6.255868  774.629353    0.000000
siesta:     10   32.638582   -1.217566    0.000000
siesta:     11    2.420322    2.272843    0.000000
siesta:     12   -2.213253    1.462047    0.000000
siesta:     13    0.720569   -0.064732    0.000000
siesta:     14   -2.877095   -0.597712    0.000000
siesta:     15   -2.947212   -3.176189    0.000000
siesta:     16    2.883732    0.627497    0.000000
siesta:     17   -0.705718    0.044047    0.000000
siesta:     18    2.199438   -1.467939    0.000000
siesta:     19   -2.497825   -2.279711    0.000000
siesta:     20  -32.573301    1.247154    0.000000
siesta:     21   -6.170880 -774.732828    0.000000
siesta:     22    1.992487  118.563789    0.000000
siesta:     23   -0.311193  109.528854    0.000000
siesta:     24    0.343562 -645.268885    0.000000
siesta:     25    2.307150  118.006192    0.000000
siesta:     26    1.577047  113.478003    0.000000
siesta:     27   26.916440    5.360414    0.000000
siesta:     28   29.273435 -551.782277    0.000000
siesta:     29    0.967027    0.105127    0.000000
siesta:     30   -2.773914    1.118559    0.000000
siesta:     31    0.333956   -2.134561    0.000000
siesta:     32  -28.480686    9.324564    0.000000
siesta:     33  -30.418445 -552.521916    0.000000
siesta:     34   -2.318332 -118.004286    0.000000
siesta:     35   30.393574  552.555923    0.000000
siesta:     36   28.453833   -9.334089    0.000000
siesta:     37   -2.944337    0.229463    0.000000
siesta:     38    2.334435   -1.171980    0.000000
siesta:     39   -1.334197    0.577776    0.000000
siesta:     40    1.160817   -1.422087    0.000000
siesta:     41   -0.811413    4.744661    0.000000
siesta:     42   -1.658900   -3.424136    0.000000
siesta:     43   -1.593186 -113.490056    0.000000
siesta:     44   -3.157515  549.745299    0.000000
siesta:     45  -29.282858  551.758099    0.000000
siesta:     46  -26.951183   -5.330102    0.000000
siesta:     47   -5.221066  679.566571    0.000000
siesta:     48  -24.619140   -0.865087    0.000000
siesta:     49  -12.073872  683.682973    0.000000
siesta:     50    1.099961    0.180561    0.000000
siesta:     51    1.119472   -2.219716    0.000000
siesta:     52    1.521741    0.706010    0.000000
siesta:     53    2.757403   -1.118165    0.000000
siesta:     54   -0.961779   -0.102878    0.000000
siesta:     55    1.531761    2.521395    0.000000
siesta:     56   -0.814682    1.237449    0.000000
siesta:     57   -1.514129   -0.726833    0.000000
siesta:     58   -1.111744    2.238993    0.000000
siesta:     59   -0.327536    2.139633    0.000000
siesta:     60    1.664470    3.429000    0.000000
siesta:     61    0.814348   -4.744944    0.000000
siesta:     62   -1.162439    1.407827    0.000000
siesta:     63    1.334654   -0.579143    0.000000
siesta:     64    0.817024   -1.247703    0.000000
siesta:     65   -1.574518   -2.432445    0.000000
siesta:     66   -1.113385   -0.175199    0.000000
siesta:     67   12.095532 -683.700570    0.000000
siesta:     68   24.592396    0.888483    0.000000
siesta:     69    5.191099 -679.534274    0.000000
siesta:     70   -2.325263    1.160396    0.000000
siesta:     71    2.948448   -0.218596    0.000000
siesta:     72    3.187278 -549.765172    0.000000
siesta: ----------------------------------------
siesta:    Tot   -0.000701   -0.017786    0.000000

siesta: Stress tensor (static) (eV/Ang**3):
siesta:    -0.422847    0.002048    0.000000
siesta:     0.002048   -2.136563    0.000000
siesta:     0.000000    0.000000   -0.000048

siesta: Cell volume =       1893.226884 Ang**3

siesta: Pressure (static):
siesta:                Solid            Molecule  Units
siesta:           0.00929192          0.15261803  Ry/Bohr**3
siesta:           0.85315295         14.01286892  eV/Ang**3
siesta:        1366.91649424      22451.33382971  kBar
(Free)E+ p_basis*V_orbitals  =      -13124.368315
(Free)Eharris+ p_basis*V_orbitals  =      -13124.362913

siesta: Electric dipole (a.u.)  =    0.000000    0.000000    0.000000
siesta: Electric dipole (Debye) =    0.000000    0.000000    0.000000

* Maximum dynamic memory allocated : Node    0 =   196 MB
* Maximum dynamic memory allocated : Node    1 =    71 MB
* Maximum dynamic memory allocated : Node    2 =    73 MB
* Maximum dynamic memory allocated : Node    3 =   189 MB
* Maximum dynamic memory allocated : Node    4 =   185 MB
* Maximum dynamic memory allocated : Node    5 =    70 MB
* Maximum dynamic memory allocated : Node    6 =    72 MB
* Maximum dynamic memory allocated : Node    7 =   170 MB

* Maximum memory occured during matrixMtoO                    

timer: CPU execution times:
timer:  Routine       Calls   Time/call    Tot.time        %
timer:  siesta            1  160645.427  160645.427   100.00
timer:  Setup             1       3.077       3.077     0.00
timer:  bands             3     268.992     806.975     0.50
timer:  writewave         1       0.020       0.020     0.00
timer:  KSV_init          1       0.002       0.002     0.00
timer:  IterMD            1  159829.439  159829.439    99.49
timer:  hsparse           1       0.234       0.234     0.00
timer:  overlap           1       7.702       7.702     0.00
timer:  IterSCF          40    3991.769  159670.770    99.39
timer:  kinefsm           2       4.019       8.037     0.01
timer:  nlefsm            2      18.451      36.902     0.02
timer:  DHSCF            41      82.286    3373.722     2.10
timer:  DHSCF1            1       0.771       0.771     0.00
timer:  DHSCF2            1      32.991      32.991     0.02
timer:  REORD           330       0.010       3.366     0.00
timer:  POISON           42       2.244      94.229     0.06
timer:  DHSCF3           41      80.706    3308.955     2.06
timer:  rhoofd           41      16.059     658.438     0.41
timer:  cellXC           41       3.458     141.770     0.09
timer:  vmat             41      38.753    1588.870     0.99
timer:  MolMec            2       0.001       0.002     0.00
timer:  diagon           40    3908.179  156327.158    97.31
timer:  c-eigval       9361       6.661   62353.815    38.81
timer:  c-buildHS      9361       0.111    1038.601     0.65
timer:  cdiag         18601       6.869  127772.565    79.54
timer:  cdiag1        18601       0.426    7922.840     4.93
timer:  cdiag2        18601       1.909   35511.769    22.11
timer:  cdiag3        18601       3.939   73274.250    45.61
timer:  cdiag4        18601       0.205    3807.788     2.37
timer:  c-eigvec       9240       7.243   66921.979    41.66
timer:  c-buildD       9240       3.009   27806.364    17.31
timer:  DHSCF4            1      28.820      28.820     0.02
timer:  dfscf             1      27.010      27.010     0.02
timer:  overfsm           1       0.393       0.393     0.00
timer:  optical           1       5.180       5.180     0.00
  

elaps: ELAPSED times:
elaps:  Routine       Calls   Time/call    Tot.time        %
elaps:  siesta            1   20101.248   20101.248   100.00
elaps:  Setup             1       0.384       0.384     0.00
elaps:  bands             3      33.676     101.029     0.50
elaps:  writewave         1       0.002       0.002     0.00
elaps:  KSV_init          1       0.000       0.000     0.00
elaps:  IterMD            1   19999.154   19999.154    99.49
elaps:  hsparse           1       0.028       0.028     0.00
elaps:  overlap           1       0.965       0.965     0.00
elaps:  IterSCF          40     499.483   19979.306    99.39
elaps:  kinefsm           2       0.493       0.986     0.00
elaps:  nlefsm            2       2.304       4.607     0.02
elaps:  DHSCF            41      10.387     425.884     2.12
elaps:  DHSCF1            1       0.102       0.102     0.00
elaps:  DHSCF2            1       4.124       4.124     0.02
elaps:  REORD           330       0.001       0.450     0.00
elaps:  POISON           42       0.280      11.770     0.06
elaps:  DHSCF3           41      10.097     413.979     2.06
elaps:  rhoofd           41       4.481     183.740     0.91
elaps:  cellXC           41       0.432      17.710     0.09
elaps:  vmat             41       4.848     198.764     0.99
elaps:  MolMec            2       0.000       0.000     0.00
elaps:  diagon           40     489.014   19560.565    97.31
elaps:  c-eigval       9361       0.833    7801.542    38.81
elaps:  c-buildHS      9361       0.015     140.719     0.70
elaps:  cdiag         18601       0.864   16071.271    79.95
elaps:  cdiag1        18601       0.053     989.090     4.92
elaps:  cdiag2        18601       0.239    4443.129    22.10
elaps:  cdiag3        18601       0.494    9180.971    45.67
elaps:  cdiag4        18601       0.026     476.957     2.37
elaps:  c-eigvec       9240       0.919    8494.312    42.26
elaps:  c-buildD       9240       0.363    3356.840    16.70
elaps:  DHSCF4            1       7.382       7.382     0.04
elaps:  dfscf             1       7.005       7.005     0.03
elaps:  overfsm           1       0.046       0.046     0.00
elaps:  optical           1       0.000       0.000     0.00
  
>> End of run:  24-APR-2016   8:54:35
