Siesta Version:                                        siesta-3.2-pl-3
Architecture  : x86_64-unknown-linux-gnu--unknown
Compiler flags: mpiifort -g -O2 -fPIC -xSSE4.1 -fp-model source -shared-intel 
PARALLEL version

* Running on   12 nodes in parallel
>> Start of run:   2-MAY-2016   0:37:12

                           ***********************       
                           *  WELCOME TO SIESTA  *       
                           ***********************       

reinit: Reading from standard input
************************** Dump of input data file ****************************
#(1) General system descriptors
SystemName            GRP_doping    # Descriptive name of the system
SystemLabel           GRP_doping    # Short name for naming files
%include STRUCT.fdf
%include KPT.fdf
%include BASIS.fdf
#%include TS.fdf # for transiesta calculation
#(4) DFT, Grid, SCF
XC.functional         GGA           # LDA or GGA (default = LDA)
XC.authors            PBE           # CA (Ceperley-Aldr) = PZ
                                    #    (Perdew-Zunger) - LDA - Default
                                    # PW92 (Perdew-Wang-92) - LDA
                                    # PBE (Perdew-Burke-Ernzerhof) - GGA
MeshCutoff            200.000000    Ry      # Default: 50.0 Ry ~ 0.444 Bohr
                                    #         100.0 Ry ~ 0.314 Bohr
MaxSCFIterations      500           # Default: 50
DM.MixingWeight       0.05          # Default: 0.25
DM.NumberPulay        10            # Default: 0
DM.PulayOnFile        F             # SystemLabel.P1, SystemLabel.P2
DM.Tolerance          1.d-4         # Default: 1.d-4
DM.UseSaveDM          .true.        # because of the bug
SCFMustConverge       .true.
NeglNonOverlapInt     F             # Default: F
#(5) Eigenvalue problem: order-N or diagonalization
SolutionMethod        Diagon        # or Transiesta
ElectronicTemperature 300.0 K       # Default: 300.0 K
#(6) Molecular dynamics and relaxations
#MD.TypeOfRun          CG            # Type of dynamics:
#MD.VariableCell       F
#MD.NumCGsteps         0           # 0 for single-point / 100 for gopt
#MD.MaxCGDispl         0.2 Bohr      # Default: 0.2 Bohr
#MD.MaxForceTol        0.02 eV/Ang   # Default: 0.04 eV/Ang
#MD.MaxStressTol       1.0 GPa       # Default: 1.0 GPa
# Geometry Constraints
#%block GeometryConstraints
#	position from 1 to 44
#%endblock GeometryConstraints
BandLinesScale   pi/a
%block BandLines
 1   0.00000000  0.00000000  0.00000000
50   0.00000000  0.07809418  0.00000000
50   0.04509075  0.07809242  0.00000000
20   0.00000000  0.00000000  0.00000000
%endblock BandLines
************************** End of input data file *****************************

reinit: -----------------------------------------------------------------------
reinit: System Name: GRP_doping
reinit: -----------------------------------------------------------------------
reinit: System Label: GRP_doping                                                  
reinit: -----------------------------------------------------------------------

initatom: Reading input for the pseudopotentials and atomic orbitals ----------
 Species number:            1  Label: B Atomic number:           5
 Species number:            2  Label: C Atomic number:           6
Ground state valence configuration:   2s02  2p01
Reading pseudopotential information in formatted form from B.psf

Valence configuration for pseudopotential generation:
2s( 2.00) rc: 1.74
2p( 1.00) rc: 1.74
3d( 0.00) rc: 1.74
4f( 0.00) rc: 1.74
Ground state valence configuration:   2s02  2p02
Reading pseudopotential information in formatted form from C.psf

Valence configuration for pseudopotential generation:
2s( 2.00) rc: 1.54
2p( 2.00) rc: 1.54
3d( 0.00) rc: 1.54
4f( 0.00) rc: 1.54
For B, standard SIESTA heuristics set lmxkb to 3
 (one more than the basis l, including polarization orbitals).
Use PS.lmax or PS.KBprojectors blocks to override.
For C, standard SIESTA heuristics set lmxkb to 3
 (one more than the basis l, including polarization orbitals).
Use PS.lmax or PS.KBprojectors blocks to override.

<basis_specs>
===============================================================================
B                    Z=   5    Mass=  10.810        Charge= 0.17977+309
Lmxo=1 Lmxkb= 3    BasisType=split      Semic=F
L=0  Nsemic=0  Cnfigmx=2
          n=1  nzeta=2  polorb=0
            splnorm:   0.15000    
               vcte:    0.0000    
               rinn:    0.0000    
                rcs:    0.0000      0.0000    
            lambdas:    1.0000      1.0000    
L=1  Nsemic=0  Cnfigmx=2
          n=1  nzeta=2  polorb=1
            splnorm:   0.15000    
               vcte:    0.0000    
               rinn:    0.0000    
                rcs:    0.0000      0.0000    
            lambdas:    1.0000      1.0000    
-------------------------------------------------------------------------------
L=0  Nkbl=1  erefs: 0.17977+309
L=1  Nkbl=1  erefs: 0.17977+309
L=2  Nkbl=1  erefs: 0.17977+309
L=3  Nkbl=1  erefs: 0.17977+309
===============================================================================
</basis_specs>

atom: Called for B                     (Z =   5)

read_vps: Pseudopotential generation method:
read_vps: ATM3      Troullier-Martins                       
Total valence charge:    3.00000

read_vps: Pseudopotential includes a core correction:
read_vps: Pseudo-core for xc-correction

xc_check: Exchange-correlation functional:
xc_check: GGA Perdew, Burke & Ernzerhof 1996
V l=0 = -2*Zval/r beyond r=  1.7165
V l=1 = -2*Zval/r beyond r=  1.7165
V l=2 = -2*Zval/r beyond r=  1.7165
V l=3 = -2*Zval/r beyond r=  1.6951
All V_l potentials equal beyond r=  1.7165
This should be close to max(r_c) in ps generation
All pots = -2*Zval/r beyond r=  1.7165

VLOCAL1: 99.0% of the norm of Vloc inside     14.733 Ry
VLOCAL1: 99.9% of the norm of Vloc inside     33.577 Ry
atom: Maximum radius for 4*pi*r*r*local-pseudopot. charge    2.04484
atom: Maximum radius for r*vlocal+2*Zval:    1.75994
GHOST: No ghost state for L =  0
GHOST: No ghost state for L =  1
GHOST: No ghost state for L =  2
GHOST: No ghost state for L =  3

KBgen: Kleinman-Bylander projectors: 
   l= 0   rc=  1.897051   el= -0.693730   Ekb=  4.595746   kbcos=  0.286105
   l= 1   rc=  1.920920   el= -0.265236   Ekb= -2.350715   kbcos= -0.315747
   l= 2   rc=  2.044840   el=  0.002055   Ekb= -0.690767   kbcos= -0.013822
   l= 3   rc=  2.149707   el=  0.003188   Ekb= -0.315358   kbcos= -0.002055

KBgen: Total number of  Kleinman-Bylander projectors:   16
atom: -------------------------------------------------------------------------

atom: SANKEY-TYPE ORBITALS:
atom: Selected multiple-zeta basis: split     

SPLIT: Orbitals with angular momentum L= 0

SPLIT: Basis orbitals for state 2s

SPLIT: PAO cut-off radius determined from an
SPLIT: energy shift=  0.007350 Ry

   izeta = 1
                 lambda =    1.000000
                     rc =    5.422032
                 energy =   -0.686029
                kinetic =    0.576707
    potential(screened) =   -1.262736
       potential(ionic) =   -3.271094

   izeta = 2
                 rmatch =    4.222573
              splitnorm =    0.150000
                 energy =   -0.602132
                kinetic =    0.858975
    potential(screened) =   -1.461107
       potential(ionic) =   -3.582536

SPLIT: Orbitals with angular momentum L= 1

SPLIT: Basis orbitals for state 2p

SPLIT: PAO cut-off radius determined from an
SPLIT: energy shift=  0.007350 Ry

   izeta = 1
                 lambda =    1.000000
                     rc =    6.790259
                 energy =   -0.258578
                kinetic =    1.481412
    potential(screened) =   -1.739989
       potential(ionic) =   -3.657461

   izeta = 2
                 rmatch =    4.608740
              splitnorm =    0.150000
                 energy =   -0.173757
                kinetic =    2.186690
    potential(screened) =   -2.360447
       potential(ionic) =   -4.464260

POLgen: Perturbative polarization orbital with L=  2

POLgen: Polarization orbital for state 2p

   izeta = 1
                     rc =    6.790259
                 energy =    0.684082
                kinetic =    1.471481
    potential(screened) =   -0.787399
       potential(ionic) =   -2.406985
atom: Total number of Sankey-type orbitals: 13

atm_pop: Valence configuration (for local Pseudopot. screening):
 2s( 2.00)                                                            
 2p( 1.00)                                                            
Vna: chval, zval:    3.00000   3.00000

Vna:  Cut-off radius for the neutral-atom potential:   6.790259
comcore: Pseudo-core radius Rcore=  2.122997

atom: _________________________________________________________________________

<basis_specs>
===============================================================================
C                    Z=   6    Mass=  12.010        Charge= 0.17977+309
Lmxo=1 Lmxkb= 3    BasisType=split      Semic=F
L=0  Nsemic=0  Cnfigmx=2
          n=1  nzeta=2  polorb=0
            splnorm:   0.15000    
               vcte:    0.0000    
               rinn:    0.0000    
                rcs:    0.0000      0.0000    
            lambdas:    1.0000      1.0000    
L=1  Nsemic=0  Cnfigmx=2
          n=1  nzeta=2  polorb=1
            splnorm:   0.15000    
               vcte:    0.0000    
               rinn:    0.0000    
                rcs:    0.0000      0.0000    
            lambdas:    1.0000      1.0000    
-------------------------------------------------------------------------------
L=0  Nkbl=1  erefs: 0.17977+309
L=1  Nkbl=1  erefs: 0.17977+309
L=2  Nkbl=1  erefs: 0.17977+309
L=3  Nkbl=1  erefs: 0.17977+309
===============================================================================
</basis_specs>

atom: Called for C                     (Z =   6)

read_vps: Pseudopotential generation method:
read_vps: ATM3      Troullier-Martins                       
Total valence charge:    4.00000

read_vps: Pseudopotential includes a core correction:
read_vps: Pseudo-core for xc-correction

xc_check: Exchange-correlation functional:
xc_check: GGA Perdew, Burke & Ernzerhof 1996
V l=0 = -2*Zval/r beyond r=  1.5227
V l=1 = -2*Zval/r beyond r=  1.5227
V l=2 = -2*Zval/r beyond r=  1.5227
V l=3 = -2*Zval/r beyond r=  1.5038
All V_l potentials equal beyond r=  1.5227
This should be close to max(r_c) in ps generation
All pots = -2*Zval/r beyond r=  1.5227

VLOCAL1: 99.0% of the norm of Vloc inside     18.722 Ry
VLOCAL1: 99.9% of the norm of Vloc inside     42.668 Ry
atom: Maximum radius for 4*pi*r*r*local-pseudopot. charge    1.83678
atom: Maximum radius for r*vlocal+2*Zval:    1.58088
GHOST: No ghost state for L =  0
GHOST: No ghost state for L =  1
GHOST: No ghost state for L =  2
GHOST: No ghost state for L =  3

KBgen: Kleinman-Bylander projectors: 
   l= 0   rc=  1.704034   el= -1.009801   Ekb=  5.335044   kbcos=  0.316824
   l= 1   rc=  1.704034   el= -0.388707   Ekb= -3.785862   kbcos= -0.366464
   l= 2   rc=  1.791422   el=  0.001971   Ekb= -0.970471   kbcos= -0.009212
   l= 3   rc=  1.859892   el=  0.003065   Ekb= -0.399525   kbcos= -0.001223

KBgen: Total number of  Kleinman-Bylander projectors:   16
atom: -------------------------------------------------------------------------

atom: SANKEY-TYPE ORBITALS:
atom: Selected multiple-zeta basis: split     

SPLIT: Orbitals with angular momentum L= 0

SPLIT: Basis orbitals for state 2s

SPLIT: PAO cut-off radius determined from an
SPLIT: energy shift=  0.007350 Ry

   izeta = 1
                 lambda =    1.000000
                     rc =    4.632753
                 energy =   -1.002270
                kinetic =    0.855760
    potential(screened) =   -1.858031
       potential(ionic) =   -5.417575

   izeta = 2
                 rmatch =    3.431921
              splitnorm =    0.150000
                 energy =   -0.867111
                kinetic =    1.300804
    potential(screened) =   -2.167915
       potential(ionic) =   -5.962684

SPLIT: Orbitals with angular momentum L= 1

SPLIT: Basis orbitals for state 2p

SPLIT: PAO cut-off radius determined from an
SPLIT: energy shift=  0.007350 Ry

   izeta = 1
                 lambda =    1.000000
                     rc =    5.658549
                 energy =   -0.381140
                kinetic =    2.399701
    potential(screened) =   -2.780841
       potential(ionic) =   -6.206085

   izeta = 2
                 rmatch =    3.653288
              splitnorm =    0.150000
                 energy =   -0.249149
                kinetic =    3.542762
    potential(screened) =   -3.791911
       potential(ionic) =   -7.581078

POLgen: Perturbative polarization orbital with L=  2

POLgen: Polarization orbital for state 2p

   izeta = 1
                     rc =    5.658549
                 energy =    1.109913
                kinetic =    2.304789
    potential(screened) =   -1.194876
       potential(ionic) =   -4.013592
atom: Total number of Sankey-type orbitals: 13

atm_pop: Valence configuration (for local Pseudopot. screening):
 2s( 2.00)                                                            
 2p( 2.00)                                                            
Vna: chval, zval:    4.00000   4.00000

Vna:  Cut-off radius for the neutral-atom potential:   5.658549
comcore: Pseudo-core radius Rcore=  1.791422

atom: _________________________________________________________________________

prinput: Basis input ----------------------------------------------------------

PAO.BasisType split     

%block ChemicalSpeciesLabel
    1    5 B                       # Species index, atomic number, species label
    2    6 C                       # Species index, atomic number, species label
%endblock ChemicalSpeciesLabel

%block PAO.Basis                 # Define Basis set
B                     2                    # Species label, number of l-shells
 n=2   0   2                         # n, l, Nzeta 
   5.422      4.223   
   1.000      1.000   
 n=2   1   2 P   1                   # n, l, Nzeta, Polarization, NzetaPol
   6.790      4.609   
   1.000      1.000   
C                     2                    # Species label, number of l-shells
 n=2   0   2                         # n, l, Nzeta 
   4.633      3.432   
   1.000      1.000   
 n=2   1   2 P   1                   # n, l, Nzeta, Polarization, NzetaPol
   5.659      3.653   
   1.000      1.000   
%endblock PAO.Basis

prinput: ----------------------------------------------------------------------

coor:   Atomic-coordinates input format  =     Fractional

siesta: Atomic coordinates (Bohr) and species
siesta:     -2.35420  17.38257   0.00000  1        1
siesta:     -0.02582  18.72698   0.00000  1        2
siesta:     -0.02582  21.41544   0.00000  1        3
siesta:      2.30256  22.75985   0.00000  1        4
siesta:      2.30256  25.44831   0.00000  1        5
siesta:     -4.68258  18.72698   0.00000  1        6
siesta:     -4.68258  21.41544   0.00000  1        7
siesta:     -2.35420  22.75985   0.00000  1        8
siesta:     -2.35420  25.44831   0.00000  1        9
siesta:      4.63094  26.79272   0.00000  1       10
siesta:      4.63094  29.48119   0.00000  1       11
siesta:     -0.02582  26.79272   0.00000  1       12
siesta:     -0.02582  29.48119   0.00000  1       13
siesta:      2.30256  30.82560   0.00000  1       14
siesta:      2.30256  33.51406   0.00000  1       15
siesta:     -0.02582  34.85847   0.00000  1       16
siesta:     -0.02582   2.59549   0.00000  2       17
siesta:     -0.02582   5.28395   0.00000  2       18
siesta:     -2.35420  38.89134   0.00000  2       19
siesta:     -2.35420  41.57980   0.00000  2       20
siesta:      2.30256  38.89134   0.00000  2       21
siesta:      2.30256  41.57980   0.00000  2       22
siesta:      4.63094  34.85847   0.00000  2       23
siesta:      4.63094  37.54693   0.00000  2       24
siesta:      6.95932  30.82560   0.00000  2       25
siesta:      6.95932  33.51406   0.00000  2       26
siesta:      9.28770  26.79272   0.00000  2       27
siesta:      9.28770  29.48119   0.00000  2       28
siesta:     -4.68258  34.85847   0.00000  2       29
siesta:     -4.68258  37.54693   0.00000  2       30
siesta:      2.30256   6.62836   0.00000  2       31
siesta:      2.30256   9.31683   0.00000  2       32
siesta:      4.63094  10.66124   0.00000  2       33
siesta:      4.63094  13.34970   0.00000  2       34
siesta:      6.95932  14.69411   0.00000  2       35
siesta:      6.95932  17.38257   0.00000  2       36
siesta:      9.28770  18.72698   0.00000  2       37
siesta:      9.28770  21.41544   0.00000  2       38
siesta:     11.61608  22.75985   0.00000  2       39
siesta:     11.61608  25.44831   0.00000  2       40
siesta:     -2.35420   6.62836   0.00000  2       41
siesta:     -2.35420   9.31683   0.00000  2       42
siesta:     -0.02582  10.66124   0.00000  2       43
siesta:     -0.02582  13.34970   0.00000  2       44
siesta:      2.30256  14.69411   0.00000  2       45
siesta:      2.30256  17.38257   0.00000  2       46
siesta:      4.63094  18.72698   0.00000  2       47
siesta:      4.63094  21.41544   0.00000  2       48
siesta:      6.95932  22.75985   0.00000  2       49
siesta:      6.95932  25.44831   0.00000  2       50
siesta:     -4.68258  10.66124   0.00000  2       51
siesta:     -4.68258  13.34970   0.00000  2       52
siesta:     -2.35420  14.69411   0.00000  2       53
siesta:     -7.01096  14.69411   0.00000  2       54
siesta:     -7.01096  17.38257   0.00000  2       55
siesta:     -9.33934  18.72698   0.00000  2       56
siesta:     -9.33934  21.41544   0.00000  2       57
siesta:     -7.01096  22.75985   0.00000  2       58
siesta:     -7.01096  25.44831   0.00000  2       59
siesta:    -11.66772  22.75985   0.00000  2       60
siesta:    -11.66772  25.44831   0.00000  2       61
siesta:     -9.33934  26.79272   0.00000  2       62
siesta:     -9.33934  29.48119   0.00000  2       63
siesta:     -4.68258  26.79272   0.00000  2       64
siesta:     -4.68258  29.48119   0.00000  2       65
siesta:     -2.35420  30.82560   0.00000  2       66
siesta:     -2.35420  33.51406   0.00000  2       67
siesta:     -7.01096  30.82560   0.00000  2       68
siesta:     -7.01096  33.51406   0.00000  2       69
siesta:     -0.02582  37.54693   0.00000  2       70
siesta:     -0.02582  42.92421   0.00000  2       71
siesta:     -0.02582  45.61267   0.00000  2       72

siesta: System type = slab      

initatomlists: Number of atoms, orbitals, and projectors:     72   936  1152

siesta: ******************** Simulation parameters ****************************
siesta:
siesta: The following are some of the parameters of the simulation.
siesta: A complete list of the parameters used, including default values,
siesta: can be found in file out.fdf
siesta:
redata: Non-Collinear-spin run           =     F
redata: SpinPolarized (Up/Down) run      =     F
redata: Number of spin components        =     1
redata: Long output                      =     F
redata: Number of Atomic Species         =        2
redata: Charge density info will appear in .RHO file
redata: Write Mulliken Pop.              =     NO
redata: Mesh Cutoff                      =   200.0000  Ry
redata: Net charge of the system         =     0.0000 |e|
redata: Max. number of SCF Iter          =      500
redata: SCF convergence failure will abort job
redata: Performing Pulay mixing using    =    10 iterations
redata: Mix DM in first SCF step ?       =     F
redata: Write Pulay info on disk?        =     F
redata: Discard 1st Pulay DM after  kick =     F
redata: New DM Mixing Weight             =     0.0500
redata: New DM Occupancy tolerance       = 0.000000000001
redata: No kicks to SCF
redata: DM Mixing Weight for Kicks       =     0.5000
redata: DM Tolerance for SCF             =     0.000100
redata: Require Energy convergence for SCF =     F
redata: DM Energy tolerance for SCF      =     0.000100 eV
redata: Require Harris convergence for SCF =     F
redata: DM Harris energy tolerance for SCF =     0.000100 eV
redata: Using Saved Data (generic)   =     F
redata: Use continuation files for DM    =     T
redata: Neglect nonoverlap interactions  =     F
redata: Method of Calculation            =     Diagonalization
redata: Divide and Conquer               =     T
redata: Electronic Temperature           =     0.0019  Ry
redata: Fix the spin of the system       =     F
redata: Dynamics option                  =     Verlet MD run
redata: Initial MD time step             =        1
redata:   Final MD time step             =        1
redata: Length of MD time step           =     1.0000  fs
redata: Initial Temperature of MD run    =     0.0000  K
redata: Perform a MD quench              =     F
redata: ***********************************************************************
Total number of electrons:   272.000000
Total ionic charge:   272.000000

* ProcessorY, Blocksize:    3  24

k-point displ. along   1 input, could be:     0.50    0.00
k-point displ. along   2 input, could be:     0.50    0.00
 Kpoints in:          231 . Kpoints trimmed:          231

siesta: k-grid: Number of k-points =   231
siesta: k-grid: Cutoff (effective) =     5.000 Ang
siesta: k-grid: Supercell and displacements
siesta: k-grid:   21   0   0      0.500
siesta: k-grid:    0  21   0      0.500
siesta: k-grid:    0   0   1      0.000
Naive supercell factors:     2    2    2

superc: Internal auxiliary supercell:     2 x     2 x     2  =       8
superc: Number of atoms, orbitals, and projectors:    576   7488   9216

* Maximum dynamic memory allocated =     4 MB

siesta:                 ==============================
                            Begin MD step =      1
                        ==============================

superc: Internal auxiliary supercell:     2 x     2 x     2  =       8
superc: Number of atoms, orbitals, and projectors:    576   7488   9216

outcell: Unit cell vectors (Ang):
       12.804619    7.392750    0.000000
        0.000000   14.785500    0.000000
        0.000000    0.000000   10.000000

outcell: Cell vector modules (Ang)   :   14.785500   14.785500   10.000000
outcell: Cell angles (23,13,12) (deg):     90.0000     90.0000     60.0000
outcell: Cell volume (Ang**3)        :   1893.2269
New_DM. Step:     1
Initializing Density Matrix...

InitMesh: MESH =   120 x   120 x    90 =     1296000
InitMesh: Mesh cutoff (required, used) =   200.000   223.865 Ry

* Maximum dynamic memory allocated =   156 MB

stepf: Fermi-Dirac step function

siesta: Program's energy decomposition (eV):
siesta: Ebs     =     -5598.750462
siesta: Eions   =     16354.103692
siesta: Ena     =      4331.315174
siesta: Ekin    =      5534.369168
siesta: Enl     =       770.056811
siesta: DEna    =        -0.000010
siesta: DUscf   =         0.000000
siesta: DUext   =         0.000000
siesta: Exc     =     -4194.170243
siesta: eta*DQ  =         0.000000
siesta: Emadel  =         0.000000
siesta: Emeta   =         0.000000
siesta: Emolmec =         0.000000
siesta: Ekinion =         0.000000
siesta: Eharris =     -9645.013921
siesta: Etot    =     -9912.532791
siesta: FreeEng =     -9912.532791

siesta: iscf   Eharris(eV)      E_KS(eV)   FreeEng(eV)   dDmax  Ef(eV)
siesta:    1    -9645.0139    -9912.5328    -9912.5328  6.5499 -8.2847
timer: Routine,Calls,Time,% = IterSCF        1    3043.163  99.59
elaps: Routine,Calls,Wall,% = IterSCF        1     254.200  99.59
siesta:    2   -14179.1612    -8929.4237    -8929.4828 18.8637 -3.3601
siesta:    3    -9579.9286    -9774.2034    -9774.2148  3.4888 -6.6299
siesta:    4    -9567.8963    -9631.1208    -9631.1671  1.3714 -5.4018
siesta:    5    -9519.7283    -9578.2455    -9578.2525  1.1182 -5.5553
siesta:    6    -9499.0852    -9532.8335    -9532.8723  0.7098 -5.6072
siesta:    7    -9496.1372    -9511.2014    -9511.2615  0.7853 -5.4904
siesta:    8    -9491.7527    -9488.4371    -9488.4840  0.6239 -5.3017
siesta:    9    -9494.2037    -9475.5248    -9475.5704  0.4884 -5.1781
siesta:   10    -9492.2398    -9473.1308    -9473.2118  0.4736 -5.1684
siesta:   11    -9490.1432    -9466.0812    -9466.1396  0.2090 -5.2286
siesta:   12    -9490.5273    -9460.2066    -9460.2524  0.1757 -5.1411
siesta:   13    -9490.3253    -9459.8567    -9459.8997  0.1712 -5.1559
siesta:   14    -9489.6630    -9465.7479    -9465.7872  0.1619 -5.1799
siesta:   15    -9489.1807    -9469.7933    -9469.8449  0.0962 -5.1866
siesta:   16    -9489.0890    -9475.5085    -9475.5546  0.0945 -5.1966
siesta:   17    -9489.0456    -9481.2554    -9481.3037  0.0549 -5.1981
siesta:   18    -9489.0316    -9483.8370    -9483.8852  0.0402 -5.2018
siesta:   19    -9489.0068    -9486.1181    -9486.1667  0.0384 -5.2076
siesta:   20    -9488.9973    -9487.5492    -9487.5967  0.0263 -5.2071
siesta:   21    -9488.9957    -9487.8077    -9487.8567  0.0234 -5.2014
siesta:   22    -9488.9939    -9488.3811    -9488.4293  0.0144 -5.1973
siesta:   23    -9488.9929    -9488.8967    -9488.9441  0.0114 -5.1950
siesta:   24    -9488.9911    -9489.1441    -9489.1911  0.0087 -5.1937
siesta:   25    -9488.9905    -9489.1471    -9489.1947  0.0078 -5.1932
siesta:   26    -9488.9902    -9489.0274    -9489.0754  0.0049 -5.1948
siesta:   27    -9488.9904    -9488.9793    -9489.0272  0.0027 -5.1973
siesta:   28    -9488.9904    -9489.0136    -9489.0612  0.0011 -5.1982
siesta:   29    -9488.9904    -9488.9989    -9489.0465  0.0007 -5.1985
siesta:   30    -9488.9904    -9488.9487    -9488.9963  0.0005 -5.1983
siesta:   31    -9488.9905    -9488.9541    -9489.0017  0.0003 -5.1984
siesta:   32    -9488.9904    -9488.9820    -9489.0295  0.0003 -5.1983
siesta:   33    -9488.9904    -9488.9899    -9489.0374  0.0002 -5.1983
siesta:   34    -9488.9904    -9489.0022    -9489.0498  0.0002 -5.1982
siesta:   35    -9488.9904    -9488.9967    -9489.0443  0.0001 -5.1983

siesta: E_KS(eV) =            -9488.9948

siesta: E_KS - E_eggbox =     -9488.9948

siesta: Atomic forces (eV/Ang):
----------------------------------------
   Tot   -0.115869   -0.038300    0.000000
----------------------------------------
   Max  557.729467
   Res  148.776803    sqrt( Sum f_i^2 / 3N )
----------------------------------------
   Max  557.729467    constrained

Stress-tensor-Voigt (kbar):     -793.08    -2684.78       -0.57        3.65        0.00        0.00
(Free)E + p*V (eV/cell)    -8118.9486
Target enthalpy (eV/cell)    -9489.0424

siesta: Stress tensor (static) (eV/Ang**3):
        -0.494997    0.002277    0.000000
         0.002277   -1.675691    0.000000
         0.000000    0.000000   -0.000357

siesta: Pressure (static):       1159.47853943  kBar

siesta: Stress tensor (total) (eV/Ang**3):
        -0.494997    0.002277    0.000000
         0.002277   -1.675691    0.000000
         0.000000    0.000000   -0.000357

siesta: Pressure (total):       1159.47853943  kBar

siesta: Temp_ion =       0.000 K

* Maximum dynamic memory allocated =   168 MB
Computing bands...

siesta: Program's energy decomposition (eV):
siesta: Ebs     =     -4230.628863
siesta: Eions   =     16354.103692
siesta: Ena     =      4331.315174
siesta: Ekin    =      8413.675044
siesta: Enl     =      -837.983756
siesta: DEna    =      -783.373293
siesta: DUscf   =       105.111649
siesta: DUext   =         0.000000
siesta: Exc     =     -4363.635940
siesta: eta*DQ  =         0.000000
siesta: Emadel  =         0.000000
siesta: Emeta   =         0.000000
siesta: Emolmec =         0.000000
siesta: Ekinion =         0.000000
siesta: Eharris =     -9488.990419
siesta: Etot    =     -9488.994813
siesta: FreeEng =     -9489.042355

siesta: Final energy (eV):
siesta:  Band Struct. =   -4230.628863
siesta:       Kinetic =    8413.675044
siesta:       Hartree =   27323.788686
siesta:    Ext. field =       0.000000
siesta:   Exch.-corr. =   -4363.635940
siesta:  Ion-electron =  -62748.567919
siesta:       Ion-ion =   21885.745317
siesta:       Ekinion =       0.000000
siesta:         Total =   -9488.994813

siesta: Atomic forces (eV/Ang):
siesta:      1  -15.952490   -2.803431    0.000000
siesta:      2    0.780362  408.938107    0.000000
siesta:      3   -0.612671    0.290361    0.000000
siesta:      4    5.284831   -3.222720    0.000000
siesta:      5   -2.191010    2.734337    0.000000
siesta:      6   -1.236633   -3.138451    0.000000
siesta:      7   -4.623744    3.416381    0.000000
siesta:      8    2.435761   -2.312614    0.000000
siesta:      9   -5.564392    3.122413    0.000000
siesta:     10    4.871521   -3.682138    0.000000
siesta:     11    1.056319    2.732824    0.000000
siesta:     12    0.729344   -0.546334    0.000000
siesta:     13    0.104276 -410.992216    0.000000
siesta:     14   14.898672    0.621089    0.000000
siesta:     15   16.882123 -397.706987    0.000000
siesta:     16    2.237877  106.462188    0.000000
siesta:     17   -3.101117  408.890086    0.000000
siesta:     18    7.332357 -127.609486    0.000000
siesta:     19    2.757480  127.634178    0.000000
siesta:     20  -19.900361 -553.123531    0.000000
siesta:     21   -1.427329  125.540600    0.000000
siesta:     22   15.956239 -549.436663    0.000000
siesta:     23   25.459573    0.189261    0.000000
siesta:     24   28.766379 -551.335287    0.000000
siesta:     25    7.504896    1.907763    0.000000
siesta:     26   -2.763536    1.501895    0.000000
siesta:     27    2.825114    1.428941    0.000000
siesta:     28   -1.818480    0.562902    0.000000
siesta:     29  -26.045646    4.723363    0.000000
siesta:     30  -32.267426 -548.783523    0.000000
siesta:     31   18.264967  404.899020    0.000000
siesta:     32   -3.745424 -125.255478    0.000000
siesta:     33   34.831311  552.376195    0.000000
siesta:     34   27.502211   -5.226018    0.000000
siesta:     35   -2.710667   -1.695609    0.000000
siesta:     36    2.802386   -0.362168    0.000000
siesta:     37   -1.535827   -0.376045    0.000000
siesta:     38    2.800586   -1.757072    0.000000
siesta:     39   -0.224056    7.192026    0.000000
siesta:     40   -0.238438   -7.073656    0.000000
siesta:     41  -24.668690  553.894641    0.000000
siesta:     42    3.117807 -131.099756    0.000000
siesta:     43   -2.804257  553.617820    0.000000
siesta:     44   -0.083360 -127.242271    0.000000
siesta:     45   24.916852  557.729467    0.000000
siesta:     46   22.068550   -2.975676    0.000000
siesta:     47   -0.753871    1.979087    0.000000
siesta:     48    2.847965   -2.003958    0.000000
siesta:     49    0.365613    0.281313    0.000000
siesta:     50    2.192777   -2.139101    0.000000
siesta:     51  -34.382871  550.398386    0.000000
siesta:     52  -26.781861   -4.864302    0.000000
siesta:     53  -22.153976  554.215971    0.000000
siesta:     54    3.041909   -1.471279    0.000000
siesta:     55   -7.264512   -1.837162    0.000000
siesta:     56    1.567710   -0.775483    0.000000
siesta:     57   -2.752257   -1.282043    0.000000
siesta:     58   -2.328329    2.179285    0.000000
siesta:     59   -0.298155   -0.409350    0.000000
siesta:     60    0.286103    6.831189    0.000000
siesta:     61    0.294693   -6.929408    0.000000
siesta:     62   -2.845956    1.638961    0.000000
siesta:     63    1.403416    0.465128    0.000000
siesta:     64   -2.783651    1.986645    0.000000
siesta:     65    0.826109   -2.096110    0.000000
siesta:     66  -22.059998    3.516322    0.000000
siesta:     67  -14.144650 -554.036750    0.000000
siesta:     68   -2.665087    0.507392    0.000000
siesta:     69    2.628350    2.002138    0.000000
siesta:     70    3.112604 -542.408554    0.000000
siesta:     71   -2.838246  127.059352    0.000000
siesta:     72    2.698063 -405.494700    0.000000
siesta: ----------------------------------------
siesta:    Tot   -0.115869   -0.038300    0.000000

siesta: Stress tensor (static) (eV/Ang**3):
siesta:    -0.494997    0.002277    0.000000
siesta:     0.002277   -1.675691    0.000000
siesta:     0.000000    0.000000   -0.000357

siesta: Cell volume =       1893.226884 Ang**3

siesta: Pressure (static):
siesta:                Solid            Molecule  Units
siesta:           0.00788182          0.11414508  Ry/Bohr**3
siesta:           0.72368176         10.48041321  eV/Ang**3
siesta:        1159.47853943      16791.65466206  kBar
(Free)E+ p_basis*V_orbitals  =       -9453.249483
(Free)Eharris+ p_basis*V_orbitals  =       -9453.243158

siesta: Electric dipole (a.u.)  =    0.000000    0.000000    0.000000
siesta: Electric dipole (Debye) =    0.000000    0.000000    0.000000

* Maximum dynamic memory allocated : Node    0 =   168 MB
* Maximum dynamic memory allocated : Node    1 =    66 MB
* Maximum dynamic memory allocated : Node    2 =    67 MB
* Maximum dynamic memory allocated : Node    3 =   154 MB
* Maximum dynamic memory allocated : Node    4 =   162 MB
* Maximum dynamic memory allocated : Node    5 =    59 MB
* Maximum dynamic memory allocated : Node    6 =    61 MB
* Maximum dynamic memory allocated : Node    7 =   152 MB
* Maximum dynamic memory allocated : Node    8 =   155 MB
* Maximum dynamic memory allocated : Node    9 =    61 MB
* Maximum dynamic memory allocated : Node   10 =    64 MB
* Maximum dynamic memory allocated : Node   11 =   149 MB

* Maximum memory occured during matrixMtoO                    

timer: CPU execution times:
timer:  Routine       Calls   Time/call    Tot.time        %
timer:  siesta            1  104011.410  104011.410   100.00
timer:  Setup             1       3.318       3.318     0.00
timer:  bands             3     226.891     680.672     0.65
timer:  writewave         1       0.022       0.022     0.00
timer:  KSV_init          1       0.005       0.005     0.00
timer:  IterMD            1  103320.538  103320.538    99.34
timer:  hsparse           1       0.277       0.277     0.00
timer:  overlap           1       7.422       7.422     0.01
timer:  IterSCF          35    2947.686  103169.020    99.19
timer:  kinefsm           2       3.780       7.560     0.01
timer:  nlefsm            2      20.348      40.697     0.04
timer:  DHSCF            36      82.349    2964.558     2.85
timer:  DHSCF1            1       1.188       1.188     0.00
timer:  DHSCF2            1      32.449      32.449     0.03
timer:  REORD           290       0.003       0.751     0.00
timer:  POISON           37       0.449      16.621     0.02
timer:  DHSCF3           36      80.617    2902.227     2.79
timer:  rhoofd           36      17.898     644.342     0.62
timer:  cellXC           36       2.430      87.485     0.08
timer:  vmat             36      40.972    1474.983     1.42
timer:  MolMec            2       0.000       0.000     0.00
timer:  diagon           35    2864.051  100241.783    96.38
timer:  c-eigval       8206       5.591   45882.022    44.11
timer:  c-buildHS      8206       0.036     294.420     0.28
timer:  cdiag         16291       5.692   92725.678    89.15
timer:  cdiag1        16291       0.261    4252.315     4.09
timer:  cdiag2        16291       1.837   29930.268    28.78
timer:  cdiag3        16291       3.381   55073.632    52.95
timer:  cdiag4        16291       0.086    1402.829     1.35
timer:  c-eigvec       8085       5.861   47385.278    45.56
timer:  c-buildD       8085       0.941    7610.826     7.32
timer:  DHSCF4            1      28.438      28.438     0.03
timer:  dfscf             1      26.343      26.343     0.03
timer:  overfsm           1       0.335       0.335     0.00
timer:  optical           1       6.281       6.281     0.01
  

elaps: ELAPSED times:
elaps:  Routine       Calls   Time/call    Tot.time        %
elaps:  siesta            1    8688.003    8688.003   100.00
elaps:  Setup             1       0.277       0.277     0.00
elaps:  bands             3      18.967      56.902     0.65
elaps:  writewave         1       0.002       0.002     0.00
elaps:  KSV_init          1       0.000       0.000     0.00
elaps:  IterMD            1    8630.295    8630.295    99.34
elaps:  hsparse           1       0.028       0.028     0.00
elaps:  overlap           1       0.718       0.718     0.01
elaps:  IterSCF          35     246.218    8617.639    99.19
elaps:  kinefsm           2       0.370       0.739     0.01
elaps:  nlefsm            2       1.737       3.474     0.04
elaps:  DHSCF            36       6.940     249.845     2.88
elaps:  DHSCF1            1       0.101       0.101     0.00
elaps:  DHSCF2            1       2.708       2.708     0.03
elaps:  REORD           290       0.000       0.087     0.00
elaps:  POISON           37       0.038       1.403     0.02
elaps:  DHSCF3           36       6.735     242.443     2.79
elaps:  rhoofd           36       3.061     110.204     1.27
elaps:  cellXC           36       0.203       7.292     0.08
elaps:  vmat             36       3.423     123.225     1.42
elaps:  MolMec            2       0.000       0.000     0.00
elaps:  diagon           35     239.240    8373.386    96.38
elaps:  c-eigval       8206       0.467    3832.431    44.11
elaps:  c-buildHS      8206       0.004      32.004     0.37
elaps:  cdiag         16291       0.470    7656.005    88.12
elaps:  cdiag1        16291       0.021     347.006     3.99
elaps:  cdiag2        16291       0.154    2502.314    28.80
elaps:  cdiag3        16291       0.283    4607.176    53.03
elaps:  cdiag4        16291       0.007     111.622     1.28
elaps:  c-eigvec       8085       0.480    3882.366    44.69
elaps:  c-buildD       8085       0.088     711.228     8.19
elaps:  DHSCF4            1       4.553       4.553     0.05
elaps:  dfscf             1       4.295       4.295     0.05
elaps:  overfsm           1       0.037       0.037     0.00
elaps:  optical           1       0.000       0.000     0.00
  
>> End of run:   2-MAY-2016   3:02:00
