Siesta Version:                                        siesta-3.2-pl-3
Architecture  : x86_64-unknown-linux-gnu--unknown
Compiler flags: mpiifort -g -O2 -fPIC -xSSE4.1 -fp-model source -shared-intel 
PARALLEL version

* Running on    8 nodes in parallel
>> Start of run:  15-APR-2016   9:33:08

                           ***********************       
                           *  WELCOME TO SIESTA  *       
                           ***********************       

reinit: Reading from standard input
************************** Dump of input data file ****************************
#(1) General system descriptors
SystemName            GRP_doping    # Descriptive name of the system
SystemLabel           GRP_doping    # Short name for naming files
%include STRUCT.fdf
%include KPT.fdf
%include BASIS.fdf
#%include TS.fdf # for transiesta calculation
#(4) DFT, Grid, SCF
XC.functional         GGA           # LDA or GGA (default = LDA)
XC.authors            PBE           # CA (Ceperley-Aldr) = PZ
                                    #    (Perdew-Zunger) - LDA - Default
                                    # PW92 (Perdew-Wang-92) - LDA
                                    # PBE (Perdew-Burke-Ernzerhof) - GGA
MeshCutoff            200.000000    Ry      # Default: 50.0 Ry ~ 0.444 Bohr
                                    #         100.0 Ry ~ 0.314 Bohr
MaxSCFIterations      500           # Default: 50
DM.MixingWeight       0.05          # Default: 0.25
DM.NumberPulay        10            # Default: 0
DM.PulayOnFile        F             # SystemLabel.P1, SystemLabel.P2
DM.Tolerance          1.d-4         # Default: 1.d-4
DM.UseSaveDM          .true.        # because of the bug
SCFMustConverge       .true.
NeglNonOverlapInt     F             # Default: F
#(5) Eigenvalue problem: order-N or diagonalization
SolutionMethod        Diagon        # or Transiesta
ElectronicTemperature 300.0 K       # Default: 300.0 K
#(6) Molecular dynamics and relaxations
#MD.TypeOfRun          CG            # Type of dynamics:
#MD.VariableCell       F
#MD.NumCGsteps         0           # 0 for single-point / 100 for gopt
#MD.MaxCGDispl         0.2 Bohr      # Default: 0.2 Bohr
#MD.MaxForceTol        0.02 eV/Ang   # Default: 0.04 eV/Ang
#MD.MaxStressTol       1.0 GPa       # Default: 1.0 GPa
# Geometry Constraints
#%block GeometryConstraints
#	position from 1 to 44
#%endblock GeometryConstraints
BandLinesScale   pi/a
%block BandLines
 1   0.00000000  0.00000000  0.00000000
50   0.00000000  0.07809418  0.00000000
50   0.04509075  0.07809242  0.00000000
20   0.00000000  0.00000000  0.00000000
%endblock BandLines
************************** End of input data file *****************************

reinit: -----------------------------------------------------------------------
reinit: System Name: GRP_doping
reinit: -----------------------------------------------------------------------
reinit: System Label: GRP_doping                                                  
reinit: -----------------------------------------------------------------------

initatom: Reading input for the pseudopotentials and atomic orbitals ----------
 Species number:            1  Label: N Atomic number:           7
 Species number:            2  Label: C Atomic number:           6
Ground state valence configuration:   2s02  2p03
Reading pseudopotential information in formatted form from N.psf

Valence configuration for pseudopotential generation:
2s( 2.00) rc: 1.48
2p( 3.00) rc: 1.48
3d( 0.00) rc: 1.48
4f( 0.00) rc: 1.48
Ground state valence configuration:   2s02  2p02
Reading pseudopotential information in formatted form from C.psf

Valence configuration for pseudopotential generation:
2s( 2.00) rc: 1.54
2p( 2.00) rc: 1.54
3d( 0.00) rc: 1.54
4f( 0.00) rc: 1.54
For N, standard SIESTA heuristics set lmxkb to 3
 (one more than the basis l, including polarization orbitals).
Use PS.lmax or PS.KBprojectors blocks to override.
For C, standard SIESTA heuristics set lmxkb to 3
 (one more than the basis l, including polarization orbitals).
Use PS.lmax or PS.KBprojectors blocks to override.

<basis_specs>
===============================================================================
N                    Z=   7    Mass=  14.010        Charge= 0.17977+309
Lmxo=1 Lmxkb= 3    BasisType=split      Semic=F
L=0  Nsemic=0  Cnfigmx=2
          n=1  nzeta=2  polorb=0
            splnorm:   0.15000    
               vcte:    0.0000    
               rinn:    0.0000    
                rcs:    0.0000      0.0000    
            lambdas:    1.0000      1.0000    
L=1  Nsemic=0  Cnfigmx=2
          n=1  nzeta=2  polorb=1
            splnorm:   0.15000    
               vcte:    0.0000    
               rinn:    0.0000    
                rcs:    0.0000      0.0000    
            lambdas:    1.0000      1.0000    
-------------------------------------------------------------------------------
L=0  Nkbl=1  erefs: 0.17977+309
L=1  Nkbl=1  erefs: 0.17977+309
L=2  Nkbl=1  erefs: 0.17977+309
L=3  Nkbl=1  erefs: 0.17977+309
===============================================================================
</basis_specs>

atom: Called for N                     (Z =   7)

read_vps: Pseudopotential generation method:
read_vps: ATM3      Troullier-Martins                       
Total valence charge:    5.00000

read_vps: Pseudopotential includes a core correction:
read_vps: Pseudo-core for xc-correction

xc_check: Exchange-correlation functional:
xc_check: GGA Perdew, Burke & Ernzerhof 1996
V l=0 = -2*Zval/r beyond r=  1.4606
V l=1 = -2*Zval/r beyond r=  1.4606
V l=2 = -2*Zval/r beyond r=  1.4606
V l=3 = -2*Zval/r beyond r=  1.4606
All V_l potentials equal beyond r=  1.4606
This should be close to max(r_c) in ps generation
All pots = -2*Zval/r beyond r=  1.4606

VLOCAL1: 99.0% of the norm of Vloc inside     20.347 Ry
VLOCAL1: 99.9% of the norm of Vloc inside     46.372 Ry
atom: Maximum radius for 4*pi*r*r*local-pseudopot. charge    1.76189
atom: Maximum radius for r*vlocal+2*Zval:    1.53550
GHOST: No ghost state for L =  0
GHOST: No ghost state for L =  1
GHOST: No ghost state for L =  2
GHOST: No ghost state for L =  3

KBgen: Kleinman-Bylander projectors: 
   l= 0   rc=  1.634559   el= -1.363963   Ekb=  5.296955   kbcos=  0.335621
   l= 1   rc=  1.614250   el= -0.521451   Ekb= -5.259161   kbcos= -0.433408
   l= 2   rc=  1.718383   el=  0.001991   Ekb= -1.271464   kbcos= -0.007566
   l= 3   rc=  1.761893   el=  0.003093   Ekb= -0.494769   kbcos= -0.001015

KBgen: Total number of  Kleinman-Bylander projectors:   16
atom: -------------------------------------------------------------------------

atom: SANKEY-TYPE ORBITALS:
atom: Selected multiple-zeta basis: split     

SPLIT: Orbitals with angular momentum L= 0

SPLIT: Basis orbitals for state 2s

SPLIT: PAO cut-off radius determined from an
SPLIT: energy shift=  0.007350 Ry

   izeta = 1
                 lambda =    1.000000
                     rc =    4.071465
                 energy =   -1.356470
                kinetic =    1.176977
    potential(screened) =   -2.533447
       potential(ionic) =   -8.057990

   izeta = 2
                 rmatch =    2.905100
              splitnorm =    0.150000
                 energy =   -1.158343
                kinetic =    1.813009
    potential(screened) =   -2.971352
       potential(ionic) =   -8.901931

SPLIT: Orbitals with angular momentum L= 1

SPLIT: Basis orbitals for state 2p

SPLIT: PAO cut-off radius determined from an
SPLIT: energy shift=  0.007350 Ry

   izeta = 1
                 lambda =    1.000000
                     rc =    4.972977
                 energy =   -0.513884
                kinetic =    3.441732
    potential(screened) =   -3.955616
       potential(ionic) =   -9.287901

   izeta = 2
                 rmatch =    3.054066
              splitnorm =    0.150000
                 energy =   -0.318226
                kinetic =    5.125348
    potential(screened) =   -5.443573
       potential(ionic) =  -11.380999

POLgen: Perturbative polarization orbital with L=  2

POLgen: Polarization orbital for state 2p

   izeta = 1
                     rc =    4.972977
                 energy =    1.607437
                kinetic =    3.268125
    potential(screened) =   -1.660688
       potential(ionic) =   -5.973652
atom: Total number of Sankey-type orbitals: 13

atm_pop: Valence configuration (for local Pseudopot. screening):
 2s( 2.00)                                                            
 2p( 3.00)                                                            
Vna: chval, zval:    5.00000   5.00000

Vna:  Cut-off radius for the neutral-atom potential:   4.972977
comcore: Pseudo-core radius Rcore=  1.554824

atom: _________________________________________________________________________

<basis_specs>
===============================================================================
C                    Z=   6    Mass=  12.010        Charge= 0.17977+309
Lmxo=1 Lmxkb= 3    BasisType=split      Semic=F
L=0  Nsemic=0  Cnfigmx=2
          n=1  nzeta=2  polorb=0
            splnorm:   0.15000    
               vcte:    0.0000    
               rinn:    0.0000    
                rcs:    0.0000      0.0000    
            lambdas:    1.0000      1.0000    
L=1  Nsemic=0  Cnfigmx=2
          n=1  nzeta=2  polorb=1
            splnorm:   0.15000    
               vcte:    0.0000    
               rinn:    0.0000    
                rcs:    0.0000      0.0000    
            lambdas:    1.0000      1.0000    
-------------------------------------------------------------------------------
L=0  Nkbl=1  erefs: 0.17977+309
L=1  Nkbl=1  erefs: 0.17977+309
L=2  Nkbl=1  erefs: 0.17977+309
L=3  Nkbl=1  erefs: 0.17977+309
===============================================================================
</basis_specs>

atom: Called for C                     (Z =   6)

read_vps: Pseudopotential generation method:
read_vps: ATM3      Troullier-Martins                       
Total valence charge:    4.00000

read_vps: Pseudopotential includes a core correction:
read_vps: Pseudo-core for xc-correction

xc_check: Exchange-correlation functional:
xc_check: GGA Perdew, Burke & Ernzerhof 1996
V l=0 = -2*Zval/r beyond r=  1.5227
V l=1 = -2*Zval/r beyond r=  1.5227
V l=2 = -2*Zval/r beyond r=  1.5227
V l=3 = -2*Zval/r beyond r=  1.5038
All V_l potentials equal beyond r=  1.5227
This should be close to max(r_c) in ps generation
All pots = -2*Zval/r beyond r=  1.5227

VLOCAL1: 99.0% of the norm of Vloc inside     18.722 Ry
VLOCAL1: 99.9% of the norm of Vloc inside     42.668 Ry
atom: Maximum radius for 4*pi*r*r*local-pseudopot. charge    1.83678
atom: Maximum radius for r*vlocal+2*Zval:    1.58088
GHOST: No ghost state for L =  0
GHOST: No ghost state for L =  1
GHOST: No ghost state for L =  2
GHOST: No ghost state for L =  3

KBgen: Kleinman-Bylander projectors: 
   l= 0   rc=  1.704034   el= -1.009801   Ekb=  5.335044   kbcos=  0.316824
   l= 1   rc=  1.704034   el= -0.388707   Ekb= -3.785862   kbcos= -0.366464
   l= 2   rc=  1.791422   el=  0.001971   Ekb= -0.970471   kbcos= -0.009212
   l= 3   rc=  1.859892   el=  0.003065   Ekb= -0.399525   kbcos= -0.001223

KBgen: Total number of  Kleinman-Bylander projectors:   16
atom: -------------------------------------------------------------------------

atom: SANKEY-TYPE ORBITALS:
atom: Selected multiple-zeta basis: split     

SPLIT: Orbitals with angular momentum L= 0

SPLIT: Basis orbitals for state 2s

SPLIT: PAO cut-off radius determined from an
SPLIT: energy shift=  0.007350 Ry

   izeta = 1
                 lambda =    1.000000
                     rc =    4.632753
                 energy =   -1.002270
                kinetic =    0.855760
    potential(screened) =   -1.858031
       potential(ionic) =   -5.417575

   izeta = 2
                 rmatch =    3.431921
              splitnorm =    0.150000
                 energy =   -0.867111
                kinetic =    1.300804
    potential(screened) =   -2.167915
       potential(ionic) =   -5.962684

SPLIT: Orbitals with angular momentum L= 1

SPLIT: Basis orbitals for state 2p

SPLIT: PAO cut-off radius determined from an
SPLIT: energy shift=  0.007350 Ry

   izeta = 1
                 lambda =    1.000000
                     rc =    5.658549
                 energy =   -0.381140
                kinetic =    2.399701
    potential(screened) =   -2.780841
       potential(ionic) =   -6.206085

   izeta = 2
                 rmatch =    3.653288
              splitnorm =    0.150000
                 energy =   -0.249149
                kinetic =    3.542762
    potential(screened) =   -3.791911
       potential(ionic) =   -7.581078

POLgen: Perturbative polarization orbital with L=  2

POLgen: Polarization orbital for state 2p

   izeta = 1
                     rc =    5.658549
                 energy =    1.109913
                kinetic =    2.304789
    potential(screened) =   -1.194876
       potential(ionic) =   -4.013592
atom: Total number of Sankey-type orbitals: 13

atm_pop: Valence configuration (for local Pseudopot. screening):
 2s( 2.00)                                                            
 2p( 2.00)                                                            
Vna: chval, zval:    4.00000   4.00000

Vna:  Cut-off radius for the neutral-atom potential:   5.658549
comcore: Pseudo-core radius Rcore=  1.791422

atom: _________________________________________________________________________

prinput: Basis input ----------------------------------------------------------

PAO.BasisType split     

%block ChemicalSpeciesLabel
    1    7 N                       # Species index, atomic number, species label
    2    6 C                       # Species index, atomic number, species label
%endblock ChemicalSpeciesLabel

%block PAO.Basis                 # Define Basis set
N                     2                    # Species label, number of l-shells
 n=2   0   2                         # n, l, Nzeta 
   4.071      2.905   
   1.000      1.000   
 n=2   1   2 P   1                   # n, l, Nzeta, Polarization, NzetaPol
   4.973      3.054   
   1.000      1.000   
C                     2                    # Species label, number of l-shells
 n=2   0   2                         # n, l, Nzeta 
   4.633      3.432   
   1.000      1.000   
 n=2   1   2 P   1                   # n, l, Nzeta, Polarization, NzetaPol
   5.659      3.653   
   1.000      1.000   
%endblock PAO.Basis

prinput: ----------------------------------------------------------------------

coor:   Atomic-coordinates input format  =     Fractional

siesta: Atomic coordinates (Bohr) and species
siesta:     -0.02582   2.59549   0.00000  1        1
siesta:      9.28770  18.72698   0.00000  1        2
siesta:     -4.68258  10.66124   0.00000  1        3
siesta:      2.30256  22.75985   0.00000  1        4
siesta:     -9.33934  18.72698   0.00000  1        5
siesta:      4.63094  26.79272   0.00000  1        6
siesta:     -0.02582  34.85847   0.00000  1        7
siesta:     -0.02582   5.28395   0.00000  2        8
siesta:     -2.35420  38.89134   0.00000  2        9
siesta:     -2.35420  41.57980   0.00000  2       10
siesta:      2.30256  38.89134   0.00000  2       11
siesta:      2.30256  41.57980   0.00000  2       12
siesta:      4.63094  34.85847   0.00000  2       13
siesta:      4.63094  37.54693   0.00000  2       14
siesta:      6.95932  30.82560   0.00000  2       15
siesta:      6.95932  33.51406   0.00000  2       16
siesta:      9.28770  26.79272   0.00000  2       17
siesta:      9.28770  29.48119   0.00000  2       18
siesta:     -4.68258  34.85847   0.00000  2       19
siesta:     -4.68258  37.54693   0.00000  2       20
siesta:      2.30256   6.62836   0.00000  2       21
siesta:      2.30256   9.31683   0.00000  2       22
siesta:      4.63094  10.66124   0.00000  2       23
siesta:      4.63094  13.34970   0.00000  2       24
siesta:      6.95932  14.69411   0.00000  2       25
siesta:      6.95932  17.38257   0.00000  2       26
siesta:      9.28770  21.41544   0.00000  2       27
siesta:     11.61608  22.75985   0.00000  2       28
siesta:     11.61608  25.44831   0.00000  2       29
siesta:     -2.35420   6.62836   0.00000  2       30
siesta:     -2.35420   9.31683   0.00000  2       31
siesta:     -0.02582  10.66124   0.00000  2       32
siesta:     -0.02582  13.34970   0.00000  2       33
siesta:      2.30256  14.69411   0.00000  2       34
siesta:      2.30256  17.38257   0.00000  2       35
siesta:      4.63094  18.72698   0.00000  2       36
siesta:      4.63094  21.41544   0.00000  2       37
siesta:      6.95932  22.75985   0.00000  2       38
siesta:      6.95932  25.44831   0.00000  2       39
siesta:     -4.68258  13.34970   0.00000  2       40
siesta:     -2.35420  14.69411   0.00000  2       41
siesta:     -2.35420  17.38257   0.00000  2       42
siesta:     -0.02582  18.72698   0.00000  2       43
siesta:     -0.02582  21.41544   0.00000  2       44
siesta:      2.30256  25.44831   0.00000  2       45
siesta:     -7.01096  14.69411   0.00000  2       46
siesta:     -7.01096  17.38257   0.00000  2       47
siesta:     -4.68258  18.72698   0.00000  2       48
siesta:     -4.68258  21.41544   0.00000  2       49
siesta:     -2.35420  22.75985   0.00000  2       50
siesta:     -2.35420  25.44831   0.00000  2       51
siesta:     -9.33934  21.41544   0.00000  2       52
siesta:     -7.01096  22.75985   0.00000  2       53
siesta:     -7.01096  25.44831   0.00000  2       54
siesta:    -11.66772  22.75985   0.00000  2       55
siesta:    -11.66772  25.44831   0.00000  2       56
siesta:     -9.33934  26.79272   0.00000  2       57
siesta:     -9.33934  29.48119   0.00000  2       58
siesta:      4.63094  29.48119   0.00000  2       59
siesta:     -0.02582  26.79272   0.00000  2       60
siesta:     -0.02582  29.48119   0.00000  2       61
siesta:     -4.68258  26.79272   0.00000  2       62
siesta:     -4.68258  29.48119   0.00000  2       63
siesta:      2.30256  30.82560   0.00000  2       64
siesta:      2.30256  33.51406   0.00000  2       65
siesta:     -2.35420  30.82560   0.00000  2       66
siesta:     -2.35420  33.51406   0.00000  2       67
siesta:     -7.01096  30.82560   0.00000  2       68
siesta:     -7.01096  33.51406   0.00000  2       69
siesta:     -0.02582  37.54693   0.00000  2       70
siesta:     -0.02582  42.92421   0.00000  2       71
siesta:     -0.02582  45.61267   0.00000  2       72

siesta: System type = slab      

initatomlists: Number of atoms, orbitals, and projectors:     72   936  1152

siesta: ******************** Simulation parameters ****************************
siesta:
siesta: The following are some of the parameters of the simulation.
siesta: A complete list of the parameters used, including default values,
siesta: can be found in file out.fdf
siesta:
redata: Non-Collinear-spin run           =     F
redata: SpinPolarized (Up/Down) run      =     F
redata: Number of spin components        =     1
redata: Long output                      =     F
redata: Number of Atomic Species         =        2
redata: Charge density info will appear in .RHO file
redata: Write Mulliken Pop.              =     NO
redata: Mesh Cutoff                      =   200.0000  Ry
redata: Net charge of the system         =     0.0000 |e|
redata: Max. number of SCF Iter          =      500
redata: SCF convergence failure will abort job
redata: Performing Pulay mixing using    =    10 iterations
redata: Mix DM in first SCF step ?       =     F
redata: Write Pulay info on disk?        =     F
redata: Discard 1st Pulay DM after  kick =     F
redata: New DM Mixing Weight             =     0.0500
redata: New DM Occupancy tolerance       = 0.000000000001
redata: No kicks to SCF
redata: DM Mixing Weight for Kicks       =     0.5000
redata: DM Tolerance for SCF             =     0.000100
redata: Require Energy convergence for SCF =     F
redata: DM Energy tolerance for SCF      =     0.000100 eV
redata: Require Harris convergence for SCF =     F
redata: DM Harris energy tolerance for SCF =     0.000100 eV
redata: Using Saved Data (generic)   =     F
redata: Use continuation files for DM    =     T
redata: Neglect nonoverlap interactions  =     F
redata: Method of Calculation            =     Diagonalization
redata: Divide and Conquer               =     T
redata: Electronic Temperature           =     0.0019  Ry
redata: Fix the spin of the system       =     F
redata: Dynamics option                  =     Verlet MD run
redata: Initial MD time step             =        1
redata:   Final MD time step             =        1
redata: Length of MD time step           =     1.0000  fs
redata: Initial Temperature of MD run    =     0.0000  K
redata: Perform a MD quench              =     F
redata: ***********************************************************************
Total number of electrons:   295.000000
Total ionic charge:   295.000000

* ProcessorY, Blocksize:    2  24

k-point displ. along   1 input, could be:     0.50    0.00
k-point displ. along   2 input, could be:     0.50    0.00
 Kpoints in:          231 . Kpoints trimmed:          231

siesta: k-grid: Number of k-points =   231
siesta: k-grid: Cutoff (effective) =     5.000 Ang
siesta: k-grid: Supercell and displacements
siesta: k-grid:   21   0   0      0.500
siesta: k-grid:    0  21   0      0.500
siesta: k-grid:    0   0   1      0.000
Naive supercell factors:     2    2    2

superc: Internal auxiliary supercell:     2 x     2 x     2  =       8
superc: Number of atoms, orbitals, and projectors:    576   7488   9216

* Maximum dynamic memory allocated =     4 MB

siesta:                 ==============================
                            Begin MD step =      1
                        ==============================

superc: Internal auxiliary supercell:     2 x     2 x     2  =       8
superc: Number of atoms, orbitals, and projectors:    576   7488   9216

outcell: Unit cell vectors (Ang):
       12.804619    7.392750    0.000000
        0.000000   14.785500    0.000000
        0.000000    0.000000   10.000000

outcell: Cell vector modules (Ang)   :   14.785500   14.785500   10.000000
outcell: Cell angles (23,13,12) (deg):     90.0000     90.0000     60.0000
outcell: Cell volume (Ang**3)        :   1893.2269
New_DM. Step:     1
Initializing Density Matrix...

InitMesh: MESH =   120 x   120 x    90 =     1296000
InitMesh: Mesh cutoff (required, used) =   200.000   223.865 Ry

* Maximum dynamic memory allocated =   194 MB

stepf: Fermi-Dirac step function

siesta: Program's energy decomposition (eV):
siesta: Ebs     =     -6041.332134
siesta: Eions   =     19528.238980
siesta: Ena     =      4791.694271
siesta: Ekin    =      6965.634232
siesta: Enl     =       421.055661
siesta: DEna    =        -0.000015
siesta: DUscf   =         0.000000
siesta: DUext   =         0.000000
siesta: Exc     =     -4345.550475
siesta: eta*DQ  =         0.000000
siesta: Emadel  =         0.000000
siesta: Emeta   =         0.000000
siesta: Emolmec =         0.000000
siesta: Ekinion =         0.000000
siesta: Eharris =    -11356.699669
siesta: Etot    =    -11695.405307
siesta: FreeEng =    -11695.405307

siesta: iscf   Eharris(eV)      E_KS(eV)   FreeEng(eV)   dDmax  Ef(eV)
siesta:    1   -11356.6997   -11695.4053   -11695.4053  8.0571 -7.5048
timer: Routine,Calls,Time,% = IterSCF        1    4274.780  99.73
elaps: Routine,Calls,Wall,% = IterSCF        1     534.984  99.73
siesta:    2   -15070.1329   -10768.3043   -10768.3345 11.7975 -3.0323
siesta:    3   -11370.4447   -11417.7601   -11417.8595  1.6366 -3.6251
siesta:    4   -11285.3919   -11368.7527   -11368.8012  1.2170 -3.9922
siesta:    5   -11241.4004   -11325.3125   -11325.3556  0.9474 -4.0422
siesta:    6   -11230.8658   -11301.2484   -11301.2936  1.0066 -4.1148
siesta:    7   -11217.4961   -11280.4428   -11280.4664  0.8380 -4.1570
siesta:    8   -11212.2476   -11266.8061   -11266.8544  0.5784 -4.2312
siesta:    9   -11209.8397   -11249.6324   -11249.6652  0.5577 -4.1350
siesta:   10   -11209.8083   -11228.6846   -11228.7209  0.5472 -4.1818
siesta:   11   -11208.9228   -11222.5741   -11222.6064  0.3049 -4.1349
siesta:   12   -11209.4169   -11207.0258   -11207.0934  0.3032 -4.2299
siesta:   13   -11208.8413   -11207.5413   -11207.6345  0.2965 -4.2270
siesta:   14   -11208.4012   -11206.8359   -11206.9046  0.4193 -4.2623
siesta:   15   -11208.0814   -11207.5124   -11207.5961  0.2943 -4.2948
siesta:   16   -11207.9631   -11207.2330   -11207.2851  0.1325 -4.3007
siesta:   17   -11207.9072   -11206.1458   -11206.2211  0.2830 -4.2881
siesta:   18   -11207.7658   -11204.2788   -11204.3630  0.0862 -4.2546
siesta:   19   -11207.7292   -11204.0953   -11204.1398  0.0629 -4.2580
siesta:   20   -11207.6977   -11203.9385   -11203.9896  0.1024 -4.2581
siesta:   21   -11207.6735   -11204.3221   -11204.3800  0.0296 -4.2623
siesta:   22   -11207.6745   -11204.9835   -11205.0478  0.0335 -4.2672
siesta:   23   -11207.6764   -11205.7607   -11205.8265  0.0249 -4.2710
siesta:   24   -11207.6723   -11206.6373   -11206.6966  0.0123 -4.2718
siesta:   25   -11207.6714   -11206.7338   -11206.7955  0.0104 -4.2717
siesta:   26   -11207.6704   -11207.0774   -11207.1394  0.0084 -4.2728
siesta:   27   -11207.6712   -11207.3191   -11207.3819  0.0085 -4.2719
siesta:   28   -11207.6718   -11207.4329   -11207.4949  0.0050 -4.2710
siesta:   29   -11207.6715   -11207.5282   -11207.5894  0.0045 -4.2711
siesta:   30   -11207.6708   -11207.6125   -11207.6740  0.0025 -4.2709
siesta:   31   -11207.6707   -11207.6259   -11207.6880  0.0021 -4.2708
siesta:   32   -11207.6708   -11207.6297   -11207.6919  0.0007 -4.2707
siesta:   33   -11207.6708   -11207.6393   -11207.7013  0.0007 -4.2707
siesta:   34   -11207.6709   -11207.6498   -11207.7118  0.0004 -4.2706
siesta:   35   -11207.6709   -11207.6656   -11207.7276  0.0003 -4.2705
siesta:   36   -11207.6709   -11207.6736   -11207.7355  0.0002 -4.2705
siesta:   37   -11207.6709   -11207.6765   -11207.7384  0.0002 -4.2706
siesta:   38   -11207.6709   -11207.6746   -11207.7365  0.0001 -4.2706

siesta: E_KS(eV) =           -11207.6747

siesta: E_KS - E_eggbox =    -11207.6747

siesta: Atomic forces (eV/Ang):
----------------------------------------
   Tot   -0.349469    0.120076    0.000000
----------------------------------------
   Max  676.462662
   Res  168.650688    sqrt( Sum f_i^2 / 3N )
----------------------------------------
   Max  676.462662    constrained

Stress-tensor-Voigt (kbar):     -687.68    -2940.94       -0.16       -0.47        0.00        0.00
(Free)E + p*V (eV/cell)    -9778.4235
Target enthalpy (eV/cell)   -11207.7366

siesta: Stress tensor (static) (eV/Ang**3):
        -0.429210   -0.000291    0.000000
        -0.000291   -1.835571    0.000000
         0.000000    0.000000   -0.000102

siesta: Pressure (static):       1209.59453148  kBar

siesta: Stress tensor (total) (eV/Ang**3):
        -0.429210   -0.000291    0.000000
        -0.000291   -1.835571    0.000000
         0.000000    0.000000   -0.000102

siesta: Pressure (total):       1209.59453148  kBar

siesta: Temp_ion =       0.000 K

* Maximum dynamic memory allocated =   210 MB
Computing bands...

siesta: Program's energy decomposition (eV):
siesta: Ebs     =     -4785.489758
siesta: Eions   =     19528.238980
siesta: Ena     =      4791.694271
siesta: Ekin    =      9995.541835
siesta: Enl     =     -1277.724757
siesta: DEna    =      -775.345566
siesta: DUscf   =       102.157194
siesta: DUext   =         0.000000
siesta: Exc     =     -4515.758683
siesta: eta*DQ  =         0.000000
siesta: Emadel  =         0.000000
siesta: Emeta   =         0.000000
siesta: Emolmec =         0.000000
siesta: Ekinion =         0.000000
siesta: Eharris =    -11207.670930
siesta: Etot    =    -11207.674686
siesta: FreeEng =    -11207.736613

siesta: Final energy (eV):
siesta:  Band Struct. =   -4785.489758
siesta:       Kinetic =    9995.541835
siesta:       Hartree =   32474.701445
siesta:    Ext. field =       0.000000
siesta:   Exch.-corr. =   -4515.758683
siesta:  Ion-electron =  -74604.632436
siesta:       Ion-ion =   25442.473152
siesta:       Ekinion =       0.000000
siesta:         Total =  -11207.674686

siesta: Atomic forces (eV/Ang):
siesta:      1    1.134328  648.881260    0.000000
siesta:      2   -1.806121    0.460015    0.000000
siesta:      3  -39.021823  653.244224    0.000000
siesta:      4    0.863049    1.148738    0.000000
siesta:      5    1.563791    0.697926    0.000000
siesta:      6   -0.111891   -0.659882    0.000000
siesta:      7   -0.186969  122.578082    0.000000
siesta:      8   -0.158896 -117.580738    0.000000
siesta:      9    3.200597  130.229087    0.000000
siesta:     10  -21.422528 -550.968673    0.000000
siesta:     11   -0.809931  128.562731    0.000000
siesta:     12   18.109999 -548.771007    0.000000
siesta:     13   27.338032    6.605357    0.000000
siesta:     14   34.408195 -549.124092    0.000000
siesta:     15    1.256162   -0.138159    0.000000
siesta:     16   -2.823547    1.756131    0.000000
siesta:     17    1.188460    2.289285    0.000000
siesta:     18   -1.116847    0.100335    0.000000
siesta:     19  -26.681975    6.534522    0.000000
siesta:     20  -31.354231 -651.934111    0.000000
siesta:     21    4.961450  548.074119    0.000000
siesta:     22   -0.571879 -125.846404    0.000000
siesta:     23   33.689671  548.870696    0.000000
siesta:     24   26.467386   -6.237063    0.000000
siesta:     25   -2.257697   -1.652128    0.000000
siesta:     26    2.678873    1.881636    0.000000
siesta:     27    1.204490   -4.101286    0.000000
siesta:     28   -0.416119    6.743489    0.000000
siesta:     29   -0.135529   -7.787545    0.000000
siesta:     30   -5.163192  547.753145    0.000000
siesta:     31    6.008333 -130.874951    0.000000
siesta:     32   -2.960639  549.144451    0.000000
siesta:     33   -1.029595 -127.966315    0.000000
siesta:     34   21.637147  558.412235    0.000000
siesta:     35   22.290536   -6.737265    0.000000
siesta:     36   -1.628854    2.950265    0.000000
siesta:     37   -0.302318   -0.050259    0.000000
siesta:     38   -0.984520    1.597870    0.000000
siesta:     39   -0.151458   -0.864716    0.000000
siesta:     40  -24.495869   -4.900151    0.000000
siesta:     41  -16.290926  560.994257    0.000000
siesta:     42  -23.234472   -5.951666    0.000000
siesta:     43   -0.198025  561.393956    0.000000
siesta:     44    0.529898    0.995564    0.000000
siesta:     45    0.694429   -0.581234    0.000000
siesta:     46    2.397410   -2.042004    0.000000
siesta:     47   -2.198063    1.546316    0.000000
siesta:     48    0.987169    2.654017    0.000000
siesta:     49   -0.580413   -0.313886    0.000000
siesta:     50    0.379289    1.027256    0.000000
siesta:     51   -1.581314   -1.109822    0.000000
siesta:     52   -1.135500   -4.427693    0.000000
siesta:     53    0.339768    1.121163    0.000000
siesta:     54   -0.027402   -1.088470    0.000000
siesta:     55    0.243487    7.231453    0.000000
siesta:     56    0.114273   -8.107956    0.000000
siesta:     57   -1.955932    2.372355    0.000000
siesta:     58    1.438394   -0.239819    0.000000
siesta:     59   -1.492638   -3.511663    0.000000
siesta:     60    1.714388   -0.017812    0.000000
siesta:     61   -0.679398 -676.462662    0.000000
siesta:     62    0.211011    0.028684    0.000000
siesta:     63    1.101692   -3.465744    0.000000
siesta:     64   25.151360    5.601968    0.000000
siesta:     65   17.931929 -560.549066    0.000000
siesta:     66  -25.219326    6.584229    0.000000
siesta:     67  -18.192127 -561.918322    0.000000
siesta:     68   -1.556385    0.594374    0.000000
siesta:     69    2.688838    1.738107    0.000000
siesta:     70   -3.797848 -538.384030    0.000000
siesta:     71   -1.587145  130.431822    0.000000
siesta:     72    1.046042 -548.344453    0.000000
siesta: ----------------------------------------
siesta:    Tot   -0.349469    0.120076    0.000000

siesta: Stress tensor (static) (eV/Ang**3):
siesta:    -0.429210   -0.000291    0.000000
siesta:    -0.000291   -1.835571    0.000000
siesta:     0.000000    0.000000   -0.000102

siesta: Cell volume =       1893.226884 Ang**3

siesta: Pressure (static):
siesta:                Solid            Molecule  Units
siesta:           0.00822249          0.13188890  Ry/Bohr**3
siesta:           0.75496136         12.10959032  eV/Ang**3
siesta:        1209.59453148      19401.91237502  kBar
(Free)E+ p_basis*V_orbitals  =      -11177.999739
(Free)Eharris+ p_basis*V_orbitals  =      -11177.996097

siesta: Electric dipole (a.u.)  =    0.000000    0.000000    0.000000
siesta: Electric dipole (Debye) =    0.000000    0.000000    0.000000

* Maximum dynamic memory allocated : Node    0 =   210 MB
* Maximum dynamic memory allocated : Node    1 =    73 MB
* Maximum dynamic memory allocated : Node    2 =    75 MB
* Maximum dynamic memory allocated : Node    3 =   199 MB
* Maximum dynamic memory allocated : Node    4 =   193 MB
* Maximum dynamic memory allocated : Node    5 =    71 MB
* Maximum dynamic memory allocated : Node    6 =    73 MB
* Maximum dynamic memory allocated : Node    7 =   179 MB

* Maximum memory occured during matrixMtoO                    

timer: CPU execution times:
timer:  Routine       Calls   Time/call    Tot.time        %
timer:  siesta            1  160429.247  160429.247   100.00
timer:  Setup             1       3.029       3.029     0.00
timer:  bands             3     268.674     806.021     0.50
timer:  writewave         1       0.019       0.019     0.00
timer:  KSV_init          1       0.002       0.002     0.00
timer:  IterMD            1  159614.340  159614.340    99.49
timer:  hsparse           1       0.233       0.233     0.00
timer:  overlap           1       5.927       5.927     0.00
timer:  IterSCF          38    4195.659  159435.028    99.38
timer:  kinefsm           2       3.084       6.168     0.00
timer:  nlefsm            2      19.227      38.455     0.02
timer:  DHSCF            39      93.357    3640.910     2.27
timer:  DHSCF1            1       0.765       0.765     0.00
timer:  DHSCF2            1      34.293      34.293     0.02
timer:  REORD           314       0.010       3.054     0.00
timer:  POISON           40       2.256      90.227     0.06
timer:  DHSCF3           39      91.577    3571.495     2.23
timer:  rhoofd           39      18.488     721.013     0.45
timer:  cellXC           39       3.449     134.526     0.08
timer:  vmat             39      44.078    1719.053     1.07
timer:  MolMec            2       0.000       0.000     0.00
timer:  diagon           38    4101.067  155840.560    97.14
timer:  c-eigval       8899       6.658   59246.561    36.93
timer:  c-buildHS      8899       0.115    1020.795     0.64
timer:  cdiag         17677       6.849  121066.671    75.46
timer:  cdiag1        17677       0.427    7548.164     4.70
timer:  cdiag2        17677       1.901   33601.708    20.94
timer:  cdiag3        17677       3.940   69652.746    43.42
timer:  cdiag4        17677       0.202    3575.697     2.23
timer:  c-eigvec       8778       7.228   63449.387    39.55
timer:  c-buildD       8778       3.862   33901.425    21.13
timer:  DHSCF4            1      32.311      32.311     0.02
timer:  dfscf             1      30.418      30.418     0.02
timer:  overfsm           1       0.410       0.410     0.00
timer:  optical           1       5.115       5.115     0.00
  

elaps: ELAPSED times:
elaps:  Routine       Calls   Time/call    Tot.time        %
elaps:  siesta            1   20075.908   20075.908   100.00
elaps:  Setup             1       0.378       0.378     0.00
elaps:  bands             3      33.636     100.907     0.50
elaps:  writewave         1       0.002       0.002     0.00
elaps:  KSV_init          1       0.000       0.000     0.00
elaps:  IterMD            1   19973.945   19973.945    99.49
elaps:  hsparse           1       0.028       0.028     0.00
elaps:  overlap           1       0.975       0.975     0.00
elaps:  IterSCF          38     525.040   19951.515    99.38
elaps:  kinefsm           2       0.502       1.004     0.01
elaps:  nlefsm            2       2.397       4.793     0.02
elaps:  DHSCF            39      11.789     459.790     2.29
elaps:  DHSCF1            1       0.100       0.100     0.00
elaps:  DHSCF2            1       4.285       4.285     0.02
elaps:  REORD           314       0.001       0.412     0.00
elaps:  POISON           40       0.282      11.293     0.06
elaps:  DHSCF3           39      11.457     446.832     2.23
elaps:  rhoofd           39       5.110     199.282     0.99
elaps:  cellXC           39       0.431      16.797     0.08
elaps:  vmat             39       5.514     215.065     1.07
elaps:  MolMec            2       0.000       0.000     0.00
elaps:  diagon           38     513.225   19502.544    97.14
elaps:  c-eigval       8899       0.833    7412.745    36.92
elaps:  c-buildHS      8899       0.016     140.569     0.70
elaps:  cdiag         17677       0.845   14931.267    74.37
elaps:  cdiag1        17677       0.053     935.466     4.66
elaps:  cdiag2        17677       0.238    4204.223    20.94
elaps:  cdiag3        17677       0.494    8727.171    43.47
elaps:  cdiag4        17677       0.025     450.681     2.24
elaps:  c-eigvec       8778       0.886    7776.318    38.73
elaps:  c-buildD       8778       0.502    4406.975    21.95
elaps:  DHSCF4            1       8.291       8.291     0.04
elaps:  dfscf             1       7.882       7.882     0.04
elaps:  overfsm           1       0.053       0.053     0.00
elaps:  optical           1       0.000       0.000     0.00
  
>> End of run:  15-APR-2016  15:07:44
