Siesta Version:                                        siesta-3.2-pl-3
Architecture  : x86_64-unknown-linux-gnu--unknown
Compiler flags: mpiifort -g -O2 -fPIC -xSSE4.1 -fp-model source -shared-intel 
PARALLEL version

* Running on    8 nodes in parallel
>> Start of run:  25-APR-2016  14:49:41

                           ***********************       
                           *  WELCOME TO SIESTA  *       
                           ***********************       

reinit: Reading from standard input
************************** Dump of input data file ****************************
#(1) General system descriptors
SystemName            GRP_doping    # Descriptive name of the system
SystemLabel           GRP_doping    # Short name for naming files
%include STRUCT.fdf
%include KPT.fdf
%include BASIS.fdf
#%include TS.fdf # for transiesta calculation
#(4) DFT, Grid, SCF
XC.functional         GGA           # LDA or GGA (default = LDA)
XC.authors            PBE           # CA (Ceperley-Aldr) = PZ
                                    #    (Perdew-Zunger) - LDA - Default
                                    # PW92 (Perdew-Wang-92) - LDA
                                    # PBE (Perdew-Burke-Ernzerhof) - GGA
MeshCutoff            200.000000    Ry      # Default: 50.0 Ry ~ 0.444 Bohr
                                    #         100.0 Ry ~ 0.314 Bohr
MaxSCFIterations      500           # Default: 50
DM.MixingWeight       0.05          # Default: 0.25
DM.NumberPulay        10            # Default: 0
DM.PulayOnFile        F             # SystemLabel.P1, SystemLabel.P2
DM.Tolerance          1.d-4         # Default: 1.d-4
DM.UseSaveDM          .true.        # because of the bug
SCFMustConverge       .true.
NeglNonOverlapInt     F             # Default: F
#(5) Eigenvalue problem: order-N or diagonalization
SolutionMethod        Diagon        # or Transiesta
ElectronicTemperature 300.0 K       # Default: 300.0 K
#(6) Molecular dynamics and relaxations
#MD.TypeOfRun          CG            # Type of dynamics:
#MD.VariableCell       F
#MD.NumCGsteps         0           # 0 for single-point / 100 for gopt
#MD.MaxCGDispl         0.2 Bohr      # Default: 0.2 Bohr
#MD.MaxForceTol        0.02 eV/Ang   # Default: 0.04 eV/Ang
#MD.MaxStressTol       1.0 GPa       # Default: 1.0 GPa
# Geometry Constraints
#%block GeometryConstraints
#	position from 1 to 44
#%endblock GeometryConstraints
BandLinesScale   pi/a
%block BandLines
 1   0.00000000  0.00000000  0.00000000
50   0.00000000  0.07809418  0.00000000
50   0.04509075  0.07809242  0.00000000
20   0.00000000  0.00000000  0.00000000
%endblock BandLines
************************** End of input data file *****************************

reinit: -----------------------------------------------------------------------
reinit: System Name: GRP_doping
reinit: -----------------------------------------------------------------------
reinit: System Label: GRP_doping                                                  
reinit: -----------------------------------------------------------------------

initatom: Reading input for the pseudopotentials and atomic orbitals ----------
 Species number:            1  Label: B Atomic number:           5
 Species number:            2  Label: C Atomic number:           6
Ground state valence configuration:   2s02  2p01
Reading pseudopotential information in formatted form from B.psf

Valence configuration for pseudopotential generation:
2s( 2.00) rc: 1.74
2p( 1.00) rc: 1.74
3d( 0.00) rc: 1.74
4f( 0.00) rc: 1.74
Ground state valence configuration:   2s02  2p02
Reading pseudopotential information in formatted form from C.psf

Valence configuration for pseudopotential generation:
2s( 2.00) rc: 1.54
2p( 2.00) rc: 1.54
3d( 0.00) rc: 1.54
4f( 0.00) rc: 1.54
For B, standard SIESTA heuristics set lmxkb to 3
 (one more than the basis l, including polarization orbitals).
Use PS.lmax or PS.KBprojectors blocks to override.
For C, standard SIESTA heuristics set lmxkb to 3
 (one more than the basis l, including polarization orbitals).
Use PS.lmax or PS.KBprojectors blocks to override.

<basis_specs>
===============================================================================
B                    Z=   5    Mass=  10.810        Charge= 0.17977+309
Lmxo=1 Lmxkb= 3    BasisType=split      Semic=F
L=0  Nsemic=0  Cnfigmx=2
          n=1  nzeta=2  polorb=0
            splnorm:   0.15000    
               vcte:    0.0000    
               rinn:    0.0000    
                rcs:    0.0000      0.0000    
            lambdas:    1.0000      1.0000    
L=1  Nsemic=0  Cnfigmx=2
          n=1  nzeta=2  polorb=1
            splnorm:   0.15000    
               vcte:    0.0000    
               rinn:    0.0000    
                rcs:    0.0000      0.0000    
            lambdas:    1.0000      1.0000    
-------------------------------------------------------------------------------
L=0  Nkbl=1  erefs: 0.17977+309
L=1  Nkbl=1  erefs: 0.17977+309
L=2  Nkbl=1  erefs: 0.17977+309
L=3  Nkbl=1  erefs: 0.17977+309
===============================================================================
</basis_specs>

atom: Called for B                     (Z =   5)

read_vps: Pseudopotential generation method:
read_vps: ATM3      Troullier-Martins                       
Total valence charge:    3.00000

read_vps: Pseudopotential includes a core correction:
read_vps: Pseudo-core for xc-correction

xc_check: Exchange-correlation functional:
xc_check: GGA Perdew, Burke & Ernzerhof 1996
V l=0 = -2*Zval/r beyond r=  1.7165
V l=1 = -2*Zval/r beyond r=  1.7165
V l=2 = -2*Zval/r beyond r=  1.7165
V l=3 = -2*Zval/r beyond r=  1.6951
All V_l potentials equal beyond r=  1.7165
This should be close to max(r_c) in ps generation
All pots = -2*Zval/r beyond r=  1.7165

VLOCAL1: 99.0% of the norm of Vloc inside     14.733 Ry
VLOCAL1: 99.9% of the norm of Vloc inside     33.577 Ry
atom: Maximum radius for 4*pi*r*r*local-pseudopot. charge    2.04484
atom: Maximum radius for r*vlocal+2*Zval:    1.75994
GHOST: No ghost state for L =  0
GHOST: No ghost state for L =  1
GHOST: No ghost state for L =  2
GHOST: No ghost state for L =  3

KBgen: Kleinman-Bylander projectors: 
   l= 0   rc=  1.897051   el= -0.693730   Ekb=  4.595746   kbcos=  0.286105
   l= 1   rc=  1.920920   el= -0.265236   Ekb= -2.350715   kbcos= -0.315747
   l= 2   rc=  2.044840   el=  0.002055   Ekb= -0.690767   kbcos= -0.013822
   l= 3   rc=  2.149707   el=  0.003188   Ekb= -0.315358   kbcos= -0.002055

KBgen: Total number of  Kleinman-Bylander projectors:   16
atom: -------------------------------------------------------------------------

atom: SANKEY-TYPE ORBITALS:
atom: Selected multiple-zeta basis: split     

SPLIT: Orbitals with angular momentum L= 0

SPLIT: Basis orbitals for state 2s

SPLIT: PAO cut-off radius determined from an
SPLIT: energy shift=  0.007350 Ry

   izeta = 1
                 lambda =    1.000000
                     rc =    5.422032
                 energy =   -0.686029
                kinetic =    0.576707
    potential(screened) =   -1.262736
       potential(ionic) =   -3.271094

   izeta = 2
                 rmatch =    4.222573
              splitnorm =    0.150000
                 energy =   -0.602132
                kinetic =    0.858975
    potential(screened) =   -1.461107
       potential(ionic) =   -3.582536

SPLIT: Orbitals with angular momentum L= 1

SPLIT: Basis orbitals for state 2p

SPLIT: PAO cut-off radius determined from an
SPLIT: energy shift=  0.007350 Ry

   izeta = 1
                 lambda =    1.000000
                     rc =    6.790259
                 energy =   -0.258578
                kinetic =    1.481412
    potential(screened) =   -1.739989
       potential(ionic) =   -3.657461

   izeta = 2
                 rmatch =    4.608740
              splitnorm =    0.150000
                 energy =   -0.173757
                kinetic =    2.186690
    potential(screened) =   -2.360447
       potential(ionic) =   -4.464260

POLgen: Perturbative polarization orbital with L=  2

POLgen: Polarization orbital for state 2p

   izeta = 1
                     rc =    6.790259
                 energy =    0.684082
                kinetic =    1.471481
    potential(screened) =   -0.787399
       potential(ionic) =   -2.406985
atom: Total number of Sankey-type orbitals: 13

atm_pop: Valence configuration (for local Pseudopot. screening):
 2s( 2.00)                                                            
 2p( 1.00)                                                            
Vna: chval, zval:    3.00000   3.00000

Vna:  Cut-off radius for the neutral-atom potential:   6.790259
comcore: Pseudo-core radius Rcore=  2.122997

atom: _________________________________________________________________________

<basis_specs>
===============================================================================
C                    Z=   6    Mass=  12.010        Charge= 0.17977+309
Lmxo=1 Lmxkb= 3    BasisType=split      Semic=F
L=0  Nsemic=0  Cnfigmx=2
          n=1  nzeta=2  polorb=0
            splnorm:   0.15000    
               vcte:    0.0000    
               rinn:    0.0000    
                rcs:    0.0000      0.0000    
            lambdas:    1.0000      1.0000    
L=1  Nsemic=0  Cnfigmx=2
          n=1  nzeta=2  polorb=1
            splnorm:   0.15000    
               vcte:    0.0000    
               rinn:    0.0000    
                rcs:    0.0000      0.0000    
            lambdas:    1.0000      1.0000    
-------------------------------------------------------------------------------
L=0  Nkbl=1  erefs: 0.17977+309
L=1  Nkbl=1  erefs: 0.17977+309
L=2  Nkbl=1  erefs: 0.17977+309
L=3  Nkbl=1  erefs: 0.17977+309
===============================================================================
</basis_specs>

atom: Called for C                     (Z =   6)

read_vps: Pseudopotential generation method:
read_vps: ATM3      Troullier-Martins                       
Total valence charge:    4.00000

read_vps: Pseudopotential includes a core correction:
read_vps: Pseudo-core for xc-correction

xc_check: Exchange-correlation functional:
xc_check: GGA Perdew, Burke & Ernzerhof 1996
V l=0 = -2*Zval/r beyond r=  1.5227
V l=1 = -2*Zval/r beyond r=  1.5227
V l=2 = -2*Zval/r beyond r=  1.5227
V l=3 = -2*Zval/r beyond r=  1.5038
All V_l potentials equal beyond r=  1.5227
This should be close to max(r_c) in ps generation
All pots = -2*Zval/r beyond r=  1.5227

VLOCAL1: 99.0% of the norm of Vloc inside     18.722 Ry
VLOCAL1: 99.9% of the norm of Vloc inside     42.668 Ry
atom: Maximum radius for 4*pi*r*r*local-pseudopot. charge    1.83678
atom: Maximum radius for r*vlocal+2*Zval:    1.58088
GHOST: No ghost state for L =  0
GHOST: No ghost state for L =  1
GHOST: No ghost state for L =  2
GHOST: No ghost state for L =  3

KBgen: Kleinman-Bylander projectors: 
   l= 0   rc=  1.704034   el= -1.009801   Ekb=  5.335044   kbcos=  0.316824
   l= 1   rc=  1.704034   el= -0.388707   Ekb= -3.785862   kbcos= -0.366464
   l= 2   rc=  1.791422   el=  0.001971   Ekb= -0.970471   kbcos= -0.009212
   l= 3   rc=  1.859892   el=  0.003065   Ekb= -0.399525   kbcos= -0.001223

KBgen: Total number of  Kleinman-Bylander projectors:   16
atom: -------------------------------------------------------------------------

atom: SANKEY-TYPE ORBITALS:
atom: Selected multiple-zeta basis: split     

SPLIT: Orbitals with angular momentum L= 0

SPLIT: Basis orbitals for state 2s

SPLIT: PAO cut-off radius determined from an
SPLIT: energy shift=  0.007350 Ry

   izeta = 1
                 lambda =    1.000000
                     rc =    4.632753
                 energy =   -1.002270
                kinetic =    0.855760
    potential(screened) =   -1.858031
       potential(ionic) =   -5.417575

   izeta = 2
                 rmatch =    3.431921
              splitnorm =    0.150000
                 energy =   -0.867111
                kinetic =    1.300804
    potential(screened) =   -2.167915
       potential(ionic) =   -5.962684

SPLIT: Orbitals with angular momentum L= 1

SPLIT: Basis orbitals for state 2p

SPLIT: PAO cut-off radius determined from an
SPLIT: energy shift=  0.007350 Ry

   izeta = 1
                 lambda =    1.000000
                     rc =    5.658549
                 energy =   -0.381140
                kinetic =    2.399701
    potential(screened) =   -2.780841
       potential(ionic) =   -6.206085

   izeta = 2
                 rmatch =    3.653288
              splitnorm =    0.150000
                 energy =   -0.249149
                kinetic =    3.542762
    potential(screened) =   -3.791911
       potential(ionic) =   -7.581078

POLgen: Perturbative polarization orbital with L=  2

POLgen: Polarization orbital for state 2p

   izeta = 1
                     rc =    5.658549
                 energy =    1.109913
                kinetic =    2.304789
    potential(screened) =   -1.194876
       potential(ionic) =   -4.013592
atom: Total number of Sankey-type orbitals: 13

atm_pop: Valence configuration (for local Pseudopot. screening):
 2s( 2.00)                                                            
 2p( 2.00)                                                            
Vna: chval, zval:    4.00000   4.00000

Vna:  Cut-off radius for the neutral-atom potential:   5.658549
comcore: Pseudo-core radius Rcore=  1.791422

atom: _________________________________________________________________________

prinput: Basis input ----------------------------------------------------------

PAO.BasisType split     

%block ChemicalSpeciesLabel
    1    5 B                       # Species index, atomic number, species label
    2    6 C                       # Species index, atomic number, species label
%endblock ChemicalSpeciesLabel

%block PAO.Basis                 # Define Basis set
B                     2                    # Species label, number of l-shells
 n=2   0   2                         # n, l, Nzeta 
   5.422      4.223   
   1.000      1.000   
 n=2   1   2 P   1                   # n, l, Nzeta, Polarization, NzetaPol
   6.790      4.609   
   1.000      1.000   
C                     2                    # Species label, number of l-shells
 n=2   0   2                         # n, l, Nzeta 
   4.633      3.432   
   1.000      1.000   
 n=2   1   2 P   1                   # n, l, Nzeta, Polarization, NzetaPol
   5.659      3.653   
   1.000      1.000   
%endblock PAO.Basis

prinput: ----------------------------------------------------------------------

coor:   Atomic-coordinates input format  =     Fractional

siesta: Atomic coordinates (Bohr) and species
siesta:     -2.35420  38.89134   0.00000  1        1
siesta:      2.30256  38.89134   0.00000  1        2
siesta:      4.63094  34.85847   0.00000  1        3
siesta:      4.63094  37.54693   0.00000  1        4
siesta:     -4.68258  34.85847   0.00000  1        5
siesta:     -4.68258  37.54693   0.00000  1        6
siesta:      2.30256   9.31683   0.00000  1        7
siesta:      4.63094  10.66124   0.00000  1        8
siesta:      4.63094  13.34970   0.00000  1        9
siesta:     -2.35420   9.31683   0.00000  1       10
siesta:     -0.02582  10.66124   0.00000  1       11
siesta:     -0.02582  13.34970   0.00000  1       12
siesta:      2.30256  14.69411   0.00000  1       13
siesta:     -4.68258  10.66124   0.00000  1       14
siesta:     -4.68258  13.34970   0.00000  1       15
siesta:     -2.35420  14.69411   0.00000  1       16
siesta:      2.30256  25.44831   0.00000  1       17
siesta:     -4.68258  21.41544   0.00000  1       18
siesta:     -2.35420  22.75985   0.00000  1       19
siesta:      4.63094  26.79272   0.00000  1       20
siesta:     -4.68258  29.48119   0.00000  1       21
siesta:      2.30256  33.51406   0.00000  1       22
siesta:     -2.35420  33.51406   0.00000  1       23
siesta:     -0.02582  34.85847   0.00000  1       24
siesta:     -0.02582  37.54693   0.00000  1       25
siesta:     -0.02582   2.59549   0.00000  2       26
siesta:     -0.02582   5.28395   0.00000  2       27
siesta:     -2.35420  41.57980   0.00000  2       28
siesta:      2.30256  41.57980   0.00000  2       29
siesta:      6.95932  30.82560   0.00000  2       30
siesta:      6.95932  33.51406   0.00000  2       31
siesta:      9.28770  26.79272   0.00000  2       32
siesta:      9.28770  29.48119   0.00000  2       33
siesta:      2.30256   6.62836   0.00000  2       34
siesta:      6.95932  14.69411   0.00000  2       35
siesta:      6.95932  17.38257   0.00000  2       36
siesta:      9.28770  18.72698   0.00000  2       37
siesta:      9.28770  21.41544   0.00000  2       38
siesta:     11.61608  22.75985   0.00000  2       39
siesta:     11.61608  25.44831   0.00000  2       40
siesta:     -2.35420   6.62836   0.00000  2       41
siesta:      2.30256  17.38257   0.00000  2       42
siesta:      4.63094  18.72698   0.00000  2       43
siesta:      4.63094  21.41544   0.00000  2       44
siesta:      6.95932  22.75985   0.00000  2       45
siesta:      6.95932  25.44831   0.00000  2       46
siesta:     -2.35420  17.38257   0.00000  2       47
siesta:     -0.02582  18.72698   0.00000  2       48
siesta:     -0.02582  21.41544   0.00000  2       49
siesta:      2.30256  22.75985   0.00000  2       50
siesta:     -7.01096  14.69411   0.00000  2       51
siesta:     -7.01096  17.38257   0.00000  2       52
siesta:     -4.68258  18.72698   0.00000  2       53
siesta:     -2.35420  25.44831   0.00000  2       54
siesta:     -9.33934  18.72698   0.00000  2       55
siesta:     -9.33934  21.41544   0.00000  2       56
siesta:     -7.01096  22.75985   0.00000  2       57
siesta:     -7.01096  25.44831   0.00000  2       58
siesta:    -11.66772  22.75985   0.00000  2       59
siesta:    -11.66772  25.44831   0.00000  2       60
siesta:     -9.33934  26.79272   0.00000  2       61
siesta:     -9.33934  29.48119   0.00000  2       62
siesta:      4.63094  29.48119   0.00000  2       63
siesta:     -0.02582  26.79272   0.00000  2       64
siesta:     -0.02582  29.48119   0.00000  2       65
siesta:     -4.68258  26.79272   0.00000  2       66
siesta:      2.30256  30.82560   0.00000  2       67
siesta:     -2.35420  30.82560   0.00000  2       68
siesta:     -7.01096  30.82560   0.00000  2       69
siesta:     -7.01096  33.51406   0.00000  2       70
siesta:     -0.02582  42.92421   0.00000  2       71
siesta:     -0.02582  45.61267   0.00000  2       72

siesta: System type = slab      

initatomlists: Number of atoms, orbitals, and projectors:     72   936  1152

siesta: ******************** Simulation parameters ****************************
siesta:
siesta: The following are some of the parameters of the simulation.
siesta: A complete list of the parameters used, including default values,
siesta: can be found in file out.fdf
siesta:
redata: Non-Collinear-spin run           =     F
redata: SpinPolarized (Up/Down) run      =     F
redata: Number of spin components        =     1
redata: Long output                      =     F
redata: Number of Atomic Species         =        2
redata: Charge density info will appear in .RHO file
redata: Write Mulliken Pop.              =     NO
redata: Mesh Cutoff                      =   200.0000  Ry
redata: Net charge of the system         =     0.0000 |e|
redata: Max. number of SCF Iter          =      500
redata: SCF convergence failure will abort job
redata: Performing Pulay mixing using    =    10 iterations
redata: Mix DM in first SCF step ?       =     F
redata: Write Pulay info on disk?        =     F
redata: Discard 1st Pulay DM after  kick =     F
redata: New DM Mixing Weight             =     0.0500
redata: New DM Occupancy tolerance       = 0.000000000001
redata: No kicks to SCF
redata: DM Mixing Weight for Kicks       =     0.5000
redata: DM Tolerance for SCF             =     0.000100
redata: Require Energy convergence for SCF =     F
redata: DM Energy tolerance for SCF      =     0.000100 eV
redata: Require Harris convergence for SCF =     F
redata: DM Harris energy tolerance for SCF =     0.000100 eV
redata: Using Saved Data (generic)   =     F
redata: Use continuation files for DM    =     T
redata: Neglect nonoverlap interactions  =     F
redata: Method of Calculation            =     Diagonalization
redata: Divide and Conquer               =     T
redata: Electronic Temperature           =     0.0019  Ry
redata: Fix the spin of the system       =     F
redata: Dynamics option                  =     Verlet MD run
redata: Initial MD time step             =        1
redata:   Final MD time step             =        1
redata: Length of MD time step           =     1.0000  fs
redata: Initial Temperature of MD run    =     0.0000  K
redata: Perform a MD quench              =     F
redata: ***********************************************************************
Total number of electrons:   263.000000
Total ionic charge:   263.000000

* ProcessorY, Blocksize:    2  24

k-point displ. along   1 input, could be:     0.50    0.00
k-point displ. along   2 input, could be:     0.50    0.00
 Kpoints in:          231 . Kpoints trimmed:          231

siesta: k-grid: Number of k-points =   231
siesta: k-grid: Cutoff (effective) =     5.000 Ang
siesta: k-grid: Supercell and displacements
siesta: k-grid:   21   0   0      0.500
siesta: k-grid:    0  21   0      0.500
siesta: k-grid:    0   0   1      0.000
Naive supercell factors:     2    2    2

superc: Internal auxiliary supercell:     2 x     2 x     2  =       8
superc: Number of atoms, orbitals, and projectors:    576   7488   9216

* Maximum dynamic memory allocated =     4 MB

siesta:                 ==============================
                            Begin MD step =      1
                        ==============================

superc: Internal auxiliary supercell:     2 x     2 x     2  =       8
superc: Number of atoms, orbitals, and projectors:    576   7488   9216

outcell: Unit cell vectors (Ang):
       12.804619    7.392750    0.000000
        0.000000   14.785500    0.000000
        0.000000    0.000000   10.000000

outcell: Cell vector modules (Ang)   :   14.785500   14.785500   10.000000
outcell: Cell angles (23,13,12) (deg):     90.0000     90.0000     60.0000
outcell: Cell volume (Ang**3)        :   1893.2269
New_DM. Step:     1
Initializing Density Matrix...

InitMesh: MESH =   120 x   120 x    90 =     1296000
InitMesh: Mesh cutoff (required, used) =   200.000   223.865 Ry

* Maximum dynamic memory allocated =   238 MB

stepf: Fermi-Dirac step function

siesta: Program's energy decomposition (eV):
siesta: Ebs     =     -5351.336847
siesta: Eions   =     15201.593291
siesta: Ena     =      4104.578596
siesta: Ekin    =      5059.728642
siesta: Enl     =       860.093741
siesta: DEna    =        -0.000006
siesta: DUscf   =         0.000000
siesta: DUext   =         0.000000
siesta: Exc     =     -4184.786024
siesta: eta*DQ  =         0.000000
siesta: Emadel  =         0.000000
siesta: Emeta   =         0.000000
siesta: Emolmec =         0.000000
siesta: Ekinion =         0.000000
siesta: Eharris =     -9259.581287
siesta: Etot    =     -9361.978343
siesta: FreeEng =     -9361.978343

siesta: iscf   Eharris(eV)      E_KS(eV)   FreeEng(eV)   dDmax  Ef(eV)
siesta:    1    -9259.5813    -9361.9783    -9361.9783  8.8182 -8.5743
timer: Routine,Calls,Time,% = IterSCF        1    4523.802  99.74
elaps: Routine,Calls,Wall,% = IterSCF        1     566.170  99.74
siesta:    2   -17842.3394    -7830.1316    -7830.1705 14.0091-12.4084
siesta:    3    -9739.0744    -9121.7003    -9121.7347  2.7007 -4.4278
siesta:    4    -9419.7294    -9131.9263    -9131.9806  1.5165 -5.2794
siesta:    5    -9374.7125    -9127.3829    -9127.4273  1.3935 -5.4992
siesta:    6    -9360.4400    -9116.5029    -9116.5397  1.3761 -5.5322
siesta:    7    -9254.9536    -9087.5591    -9087.6082  1.2867 -5.7121
siesta:    8    -9197.1060    -9073.4448    -9073.4758  1.2433 -6.0778
siesta:    9    -9145.9184    -9064.2182    -9064.2530  1.3782 -5.5627
siesta:   10    -9108.1706    -9060.1063    -9060.1400  0.6698 -5.1726
siesta:   11    -9104.3745    -9051.3528    -9051.4023  0.8381 -5.1346
siesta:   12    -9104.6105    -9043.1668    -9043.2131  0.9029 -5.0999
siesta:   13    -9103.0081    -9041.2322    -9041.2848  0.8665 -5.0183
siesta:   14    -9101.3702    -9038.0799    -9038.1268  0.7835 -5.1353
siesta:   15    -9101.7048    -9042.8977    -9042.9820  0.4754 -5.3500
siesta:   16    -9100.3928    -9045.4918    -9045.5160  0.4976 -5.3339
siesta:   17    -9099.6304    -9047.0678    -9047.1565  0.6798 -5.2715
siesta:   18    -9099.3765    -9047.6813    -9047.7227  0.6759 -5.2850
siesta:   19    -9099.2468    -9047.4486    -9047.4978  0.4612 -5.3289
siesta:   20    -9098.9822    -9056.2781    -9056.3474  0.4201 -5.2813
siesta:   21    -9098.3904    -9061.1710    -9061.2387  0.3815 -5.2620
siesta:   22    -9098.0126    -9067.7761    -9067.8186  0.3833 -5.3382
siesta:   23    -9097.9711    -9075.0660    -9075.1456  0.3593 -5.2880
siesta:   24    -9097.7972    -9077.6591    -9077.7097  0.3509 -5.2931
siesta:   25    -9097.6024    -9080.5572    -9080.6448  0.2503 -5.3026
siesta:   26    -9097.5957    -9086.6477    -9086.7455  0.3474 -5.3756
siesta:   27    -9097.5713    -9089.9920    -9090.0767  0.3760 -5.3517
siesta:   28    -9097.5577    -9090.8204    -9090.8968  0.3640 -5.3509
siesta:   29    -9097.4860    -9087.6684    -9087.7446  0.2648 -5.3456
siesta:   30    -9097.4783    -9087.1404    -9087.2412  0.1510 -5.3532
siesta:   31    -9097.5024    -9089.3038    -9089.4152  0.3261 -5.3621
siesta:   32    -9097.5034    -9089.0312    -9089.1205  0.3239 -5.3639
siesta:   33    -9097.5173    -9088.5225    -9088.6140  0.3359 -5.3638
siesta:   34    -9097.4949    -9090.3189    -9090.4073  0.3382 -5.3601
siesta:   35    -9097.5098    -9090.8871    -9090.9771  0.3570 -5.3527
siesta:   36    -9097.5112    -9090.8991    -9090.9858  0.3375 -5.3440
siesta:   37    -9097.4995    -9091.6490    -9091.7331  0.3281 -5.3465
siesta:   38    -9097.5030    -9090.7375    -9090.8254  0.3342 -5.3451
siesta:   39    -9097.5041    -9090.8396    -9090.9272  0.3333 -5.3460
siesta:   40    -9097.4704    -9089.7422    -9089.8305  0.2391 -5.3388
siesta:   41    -9097.4620    -9089.3189    -9089.4221  0.1142 -5.3395
siesta:   42    -9097.4891    -9091.7059    -9091.8196  0.2928 -5.3531
siesta:   43    -9097.4618    -9093.0366    -9093.1243  0.1658 -5.3646
siesta:   44    -9097.4732    -9093.0530    -9093.1524  0.3820 -5.3825
siesta:   45    -9097.4422    -9095.3920    -9095.5018  0.0263 -5.3805
siesta:   46    -9097.4356    -9095.9741    -9096.0826  0.0941 -5.3862
siesta:   47    -9097.4417    -9097.3031    -9097.4166  0.0922 -5.3821
siesta:   48    -9097.4370    -9097.5715    -9097.6767  0.0375 -5.3789
siesta:   49    -9097.4358    -9097.6596    -9097.7679  0.0271 -5.3776
siesta:   50    -9097.4337    -9097.7336    -9097.8418  0.0067 -5.3796
siesta:   51    -9097.4338    -9097.7626    -9097.8719  0.0084 -5.3805
siesta:   52    -9097.4326    -9097.8442    -9097.9530  0.0089 -5.3819
siesta:   53    -9097.4339    -9097.6327    -9097.7427  0.0147 -5.3794
siesta:   54    -9097.4336    -9097.5201    -9097.6286  0.0122 -5.3785
siesta:   55    -9097.4335    -9097.4491    -9097.5578  0.0046 -5.3783
siesta:   56    -9097.4333    -9097.4586    -9097.5674  0.0025 -5.3788
siesta:   57    -9097.4332    -9097.4639    -9097.5729  0.0029 -5.3791
siesta:   58    -9097.4332    -9097.4404    -9097.5495  0.0017 -5.3790
siesta:   59    -9097.4332    -9097.4210    -9097.5301  0.0008 -5.3791
siesta:   60    -9097.4332    -9097.4196    -9097.5287  0.0009 -5.3792
siesta:   61    -9097.4332    -9097.4172    -9097.5263  0.0010 -5.3792
siesta:   62    -9097.4332    -9097.4231    -9097.5321  0.0002 -5.3792
siesta:   63    -9097.4332    -9097.4273    -9097.5364  0.0005 -5.3792
siesta:   64    -9097.4332    -9097.4372    -9097.5462  0.0002 -5.3793
siesta:   65    -9097.4332    -9097.4386    -9097.5477  0.0001 -5.3793

siesta: E_KS(eV) =            -9097.4399

siesta: E_KS - E_eggbox =     -9097.4399

siesta: Atomic forces (eV/Ang):
----------------------------------------
   Tot   -0.159517   -0.114168    0.000000
----------------------------------------
   Max  560.727689
   Res  120.474023    sqrt( Sum f_i^2 / 3N )
----------------------------------------
   Max  560.727689    constrained

Stress-tensor-Voigt (kbar):     -589.20    -2203.50       -0.71       -1.49        0.00        0.00
(Free)E + p*V (eV/cell)    -7997.2729
Target enthalpy (eV/cell)    -9097.5490

siesta: Stress tensor (static) (eV/Ang**3):
        -0.367744   -0.000929    0.000000
        -0.000929   -1.375303    0.000000
         0.000000    0.000000   -0.000446

siesta: Pressure (static):        931.13811132  kBar

siesta: Stress tensor (total) (eV/Ang**3):
        -0.367744   -0.000929    0.000000
        -0.000929   -1.375303    0.000000
         0.000000    0.000000   -0.000446

siesta: Pressure (total):        931.13811132  kBar

siesta: Temp_ion =       0.000 K

* Maximum dynamic memory allocated =   256 MB
Computing bands...

siesta: Program's energy decomposition (eV):
siesta: Ebs     =     -4072.477674
siesta: Eions   =     15201.593291
siesta: Ena     =      4104.578596
siesta: Ekin    =      7647.572543
siesta: Enl     =      -749.131681
siesta: DEna    =      -657.189163
siesta: DUscf   =        86.363623
siesta: DUext   =         0.000000
siesta: Exc     =     -4328.040551
siesta: eta*DQ  =         0.000000
siesta: Emadel  =         0.000000
siesta: Emeta   =         0.000000
siesta: Emolmec =         0.000000
siesta: Ekinion =         0.000000
siesta: Eharris =     -9097.433200
siesta: Etot    =     -9097.439924
siesta: FreeEng =     -9097.548983

siesta: Final energy (eV):
siesta:  Band Struct. =   -4072.477674
siesta:       Kinetic =    7647.572543
siesta:       Hartree =   23811.140408
siesta:    Ext. field =       0.000000
siesta:   Exch.-corr. =   -4328.040551
siesta:  Ion-electron =  -55073.872231
siesta:       Ion-ion =   18845.759907
siesta:       Ekinion =       0.000000
siesta:         Total =   -9097.439924

siesta: Atomic forces (eV/Ang):
siesta:      1   -0.466855   99.134039    0.000000
siesta:      2    0.400617   99.176836    0.000000
siesta:      3   18.303255   -2.985916    0.000000
siesta:      4   21.276361 -288.247144    0.000000
siesta:      5  -17.951689   -2.725710    0.000000
siesta:      6  -21.146741 -288.865615    0.000000
siesta:      7    0.397845  -99.366145    0.000000
siesta:      8   21.125967  288.113117    0.000000
siesta:      9   18.235260    3.159621    0.000000
siesta:     10   -0.396213  -99.259640    0.000000
siesta:     11   -0.047073  287.623082    0.000000
siesta:     12    0.076599 -108.159581    0.000000
siesta:     13   15.969989  404.013568    0.000000
siesta:     14  -21.102858  288.623478    0.000000
siesta:     15  -18.366852    3.118456    0.000000
siesta:     16  -15.578469  404.327030    0.000000
siesta:     17   -3.764388   -0.844545    0.000000
siesta:     18   -3.535657   -1.880532    0.000000
siesta:     19    3.839375    0.880161    0.000000
siesta:     20    3.390375    1.889534    0.000000
siesta:     21    1.678762   -1.282570    0.000000
siesta:     22   15.984102 -404.082261    0.000000
siesta:     23  -15.331920 -404.551001    0.000000
siesta:     24    0.124712  107.783968    0.000000
siesta:     25    0.042853 -287.169829    0.000000
siesta:     26    2.014639  552.515016    0.000000
siesta:     27   -0.363816 -126.146796    0.000000
siesta:     28  -13.087523 -401.665910    0.000000
siesta:     29   12.804897 -401.314453    0.000000
siesta:     30    2.617856    1.696426    0.000000
siesta:     31    0.575329   -0.142041    0.000000
siesta:     32    2.624267    1.488052    0.000000
siesta:     33   -0.934053    0.118611    0.000000
siesta:     34   13.162420  401.337510    0.000000
siesta:     35    0.531469    0.088778    0.000000
siesta:     36    2.163495   -1.182896    0.000000
siesta:     37   -0.435273    0.082242    0.000000
siesta:     38    2.272623   -1.851489    0.000000
siesta:     39    0.172912    5.979735    0.000000
siesta:     40    0.056096   -6.222157    0.000000
siesta:     41  -13.835498  401.662957    0.000000
siesta:     42   22.965529   -4.904549    0.000000
siesta:     43   -1.064392    2.729822    0.000000
siesta:     44    0.034415   -0.756683    0.000000
siesta:     45    0.279233    1.430407    0.000000
siesta:     46    2.521198   -2.686004    0.000000
siesta:     47  -23.343559   -4.907773    0.000000
siesta:     48    0.208695  559.517977    0.000000
siesta:     49    3.214870   -0.433248    0.000000
siesta:     50   -0.865012   -4.620807    0.000000
siesta:     51   -0.703407    0.004154    0.000000
siesta:     52   -2.501085   -1.686388    0.000000
siesta:     53    1.561426   -1.061084    0.000000
siesta:     54    0.162401    4.527514    0.000000
siesta:     55    0.993183   -0.003959    0.000000
siesta:     56   -2.586917   -1.699827    0.000000
siesta:     57   -2.624993    2.366286    0.000000
siesta:     58    0.488192   -1.593365    0.000000
siesta:     59   -0.191181    6.146902    0.000000
siesta:     60   -0.054023   -5.910012    0.000000
siesta:     61   -2.890014    1.889866    0.000000
siesta:     62    1.384506   -0.171366    0.000000
siesta:     63   -1.722026    1.193556    0.000000
siesta:     64   -2.811111    0.650466    0.000000
siesta:     65   -1.290469 -560.727689    0.000000
siesta:     66    0.109072   -3.232481    0.000000
siesta:     67   23.333009    5.171624    0.000000
siesta:     68  -20.601803    5.371605    0.000000
siesta:     69   -6.866814    3.851273    0.000000
siesta:     70   -0.455023   -0.696884    0.000000
siesta:     71   -0.035638  126.386803    0.000000
siesta:     72   -0.304975 -551.126290    0.000000
siesta: ----------------------------------------
siesta:    Tot   -0.159517   -0.114168    0.000000

siesta: Stress tensor (static) (eV/Ang**3):
siesta:    -0.367744   -0.000929    0.000000
siesta:    -0.000929   -1.375303    0.000000
siesta:     0.000000    0.000000   -0.000446

siesta: Cell volume =       1893.226884 Ang**3

siesta: Pressure (static):
siesta:                Solid            Molecule  Units
siesta:           0.00632962          0.08941859  Ry/Bohr**3
siesta:           0.58116442          8.21011130  eV/Ang**3
siesta:         931.13811132      13154.19066729  kBar
(Free)E+ p_basis*V_orbitals  =       -9058.912531
(Free)Eharris+ p_basis*V_orbitals  =       -9058.907133

siesta: Electric dipole (a.u.)  =    0.000000    0.000000    0.000000
siesta: Electric dipole (Debye) =    0.000000    0.000000    0.000000

* Maximum dynamic memory allocated : Node    0 =   256 MB
* Maximum dynamic memory allocated : Node    1 =    91 MB
* Maximum dynamic memory allocated : Node    2 =    95 MB
* Maximum dynamic memory allocated : Node    3 =   243 MB
* Maximum dynamic memory allocated : Node    4 =   227 MB
* Maximum dynamic memory allocated : Node    5 =    84 MB
* Maximum dynamic memory allocated : Node    6 =    86 MB
* Maximum dynamic memory allocated : Node    7 =   209 MB

* Maximum memory occured during matrixMtoO                    

timer: CPU execution times:
timer:  Routine       Calls   Time/call    Tot.time        %
timer:  siesta            1  290077.874  290077.874   100.00
timer:  Setup             1       3.040       3.040     0.00
timer:  bands             3     269.362     808.085     0.28
timer:  writewave         1       0.020       0.020     0.00
timer:  KSV_init          1       0.000       0.000     0.00
timer:  IterMD            1  289260.909  289260.909    99.72
timer:  hsparse           1       0.397       0.397     0.00
timer:  overlap           1       7.784       7.784     0.00
timer:  IterSCF          65    4446.155  289000.047    99.63
timer:  kinefsm           2       4.035       8.070     0.00
timer:  nlefsm            2      22.116      44.231     0.02
timer:  DHSCF            66     139.252    9190.601     3.17
timer:  DHSCF1            1       0.997       0.997     0.00
timer:  DHSCF2            1      47.562      47.562     0.02
timer:  REORD           530       0.010       5.187     0.00
timer:  POISON           67       2.250     150.753     0.05
timer:  DHSCF3           66     137.770    9092.804     3.13
timer:  rhoofd           66      27.998    1847.866     0.64
timer:  cellXC           66       3.468     228.916     0.08
timer:  vmat             66      67.002    4422.103     1.52
timer:  MolMec            2       0.000       0.000     0.00
timer:  diagon           65    4305.691  279869.885    96.48
timer:  c-eigval      15136       6.685  101180.824    34.88
timer:  c-buildHS     15136       0.125    1888.239     0.65
timer:  cdiag         30151       6.910  208342.261    71.82
timer:  cdiag1        30151       0.427   12889.463     4.44
timer:  cdiag2        30151       1.911   57628.939    19.87
timer:  cdiag3        30151       3.945  118960.645    41.01
timer:  cdiag4        30151       0.225    6781.158     2.34
timer:  c-eigvec      15015       7.323  109948.409    37.90
timer:  c-buildD      15015       4.626   69465.798    23.95
timer:  DHSCF4            1      45.676      45.676     0.02
timer:  dfscf             1      42.938      42.938     0.01
timer:  overfsm           1       0.488       0.488     0.00
timer:  optical           1       5.094       5.094     0.00
  

elaps: ELAPSED times:
elaps:  Routine       Calls   Time/call    Tot.time        %
elaps:  siesta            1   36302.033   36302.033   100.00
elaps:  Setup             1       0.379       0.379     0.00
elaps:  bands             3      33.722     101.165     0.28
elaps:  writewave         1       0.002       0.002     0.00
elaps:  KSV_init          1       0.000       0.000     0.00
elaps:  IterMD            1   36199.815   36199.815    99.72
elaps:  hsparse           1       0.050       0.050     0.00
elaps:  overlap           1       0.971       0.971     0.00
elaps:  IterSCF          65     556.418   36167.186    99.63
elaps:  kinefsm           2       0.505       1.009     0.00
elaps:  nlefsm            2       2.757       5.515     0.02
elaps:  DHSCF            66      17.517    1156.144     3.18
elaps:  DHSCF1            1       0.129       0.129     0.00
elaps:  DHSCF2            1       5.945       5.945     0.02
elaps:  REORD           530       0.001       0.692     0.00
elaps:  POISON           67       0.282      18.868     0.05
elaps:  DHSCF3           66      17.236    1137.562     3.13
elaps:  rhoofd           66       7.953     524.877     1.45
elaps:  cellXC           66       0.433      28.593     0.08
elaps:  vmat             66       8.382     553.202     1.52
elaps:  MolMec            2       0.000       0.000     0.00
elaps:  diagon           65     538.864   35026.156    96.49
elaps:  c-eigval      15136       0.836   12659.519    34.87
elaps:  c-buildHS     15136       0.017     256.929     0.71
elaps:  cdiag         30151       0.853   25731.938    70.88
elaps:  cdiag1        30151       0.053    1590.876     4.38
elaps:  cdiag2        30151       0.239    7210.716    19.86
elaps:  cdiag3        30151       0.494   14905.425    41.06
elaps:  cdiag4        30151       0.028     854.793     2.35
elaps:  c-eigvec      15015       0.898   13490.465    37.16
elaps:  c-buildD      15015       0.597    8965.361    24.70
elaps:  DHSCF4            1      12.019      12.019     0.03
elaps:  dfscf             1      11.464      11.464     0.03
elaps:  overfsm           1       0.059       0.059     0.00
elaps:  optical           1       0.000       0.000     0.00
  
>> End of run:  26-APR-2016   0:54:43
