Siesta Version:                                        siesta-3.2-pl-3
Architecture  : x86_64-unknown-linux-gnu--unknown
Compiler flags: mpiifort -g -O2 -fPIC -xSSE4.1 -fp-model source -shared-intel 
PARALLEL version

* Running on    8 nodes in parallel
>> Start of run:  20-APR-2016   0:55:35

                           ***********************       
                           *  WELCOME TO SIESTA  *       
                           ***********************       

reinit: Reading from standard input
************************** Dump of input data file ****************************
#(1) General system descriptors
SystemName            GRP_doping    # Descriptive name of the system
SystemLabel           GRP_doping    # Short name for naming files
%include STRUCT.fdf
%include KPT.fdf
%include BASIS.fdf
#%include TS.fdf # for transiesta calculation
#(4) DFT, Grid, SCF
XC.functional         GGA           # LDA or GGA (default = LDA)
XC.authors            PBE           # CA (Ceperley-Aldr) = PZ
                                    #    (Perdew-Zunger) - LDA - Default
                                    # PW92 (Perdew-Wang-92) - LDA
                                    # PBE (Perdew-Burke-Ernzerhof) - GGA
MeshCutoff            200.000000    Ry      # Default: 50.0 Ry ~ 0.444 Bohr
                                    #         100.0 Ry ~ 0.314 Bohr
MaxSCFIterations      500           # Default: 50
DM.MixingWeight       0.05          # Default: 0.25
DM.NumberPulay        10            # Default: 0
DM.PulayOnFile        F             # SystemLabel.P1, SystemLabel.P2
DM.Tolerance          1.d-4         # Default: 1.d-4
DM.UseSaveDM          .true.        # because of the bug
SCFMustConverge       .true.
NeglNonOverlapInt     F             # Default: F
#(5) Eigenvalue problem: order-N or diagonalization
SolutionMethod        Diagon        # or Transiesta
ElectronicTemperature 300.0 K       # Default: 300.0 K
#(6) Molecular dynamics and relaxations
#MD.TypeOfRun          CG            # Type of dynamics:
#MD.VariableCell       F
#MD.NumCGsteps         0           # 0 for single-point / 100 for gopt
#MD.MaxCGDispl         0.2 Bohr      # Default: 0.2 Bohr
#MD.MaxForceTol        0.02 eV/Ang   # Default: 0.04 eV/Ang
#MD.MaxStressTol       1.0 GPa       # Default: 1.0 GPa
# Geometry Constraints
#%block GeometryConstraints
#	position from 1 to 44
#%endblock GeometryConstraints
BandLinesScale   pi/a
%block BandLines
 1   0.00000000  0.00000000  0.00000000
50   0.00000000  0.07809418  0.00000000
50   0.04509075  0.07809242  0.00000000
20   0.00000000  0.00000000  0.00000000
%endblock BandLines
************************** End of input data file *****************************

reinit: -----------------------------------------------------------------------
reinit: System Name: GRP_doping
reinit: -----------------------------------------------------------------------
reinit: System Label: GRP_doping                                                  
reinit: -----------------------------------------------------------------------

initatom: Reading input for the pseudopotentials and atomic orbitals ----------
 Species number:            1  Label: N Atomic number:           7
 Species number:            2  Label: C Atomic number:           6
Ground state valence configuration:   2s02  2p03
Reading pseudopotential information in formatted form from N.psf

Valence configuration for pseudopotential generation:
2s( 2.00) rc: 1.48
2p( 3.00) rc: 1.48
3d( 0.00) rc: 1.48
4f( 0.00) rc: 1.48
Ground state valence configuration:   2s02  2p02
Reading pseudopotential information in formatted form from C.psf

Valence configuration for pseudopotential generation:
2s( 2.00) rc: 1.54
2p( 2.00) rc: 1.54
3d( 0.00) rc: 1.54
4f( 0.00) rc: 1.54
For N, standard SIESTA heuristics set lmxkb to 3
 (one more than the basis l, including polarization orbitals).
Use PS.lmax or PS.KBprojectors blocks to override.
For C, standard SIESTA heuristics set lmxkb to 3
 (one more than the basis l, including polarization orbitals).
Use PS.lmax or PS.KBprojectors blocks to override.

<basis_specs>
===============================================================================
N                    Z=   7    Mass=  14.010        Charge= 0.17977+309
Lmxo=1 Lmxkb= 3    BasisType=split      Semic=F
L=0  Nsemic=0  Cnfigmx=2
          n=1  nzeta=2  polorb=0
            splnorm:   0.15000    
               vcte:    0.0000    
               rinn:    0.0000    
                rcs:    0.0000      0.0000    
            lambdas:    1.0000      1.0000    
L=1  Nsemic=0  Cnfigmx=2
          n=1  nzeta=2  polorb=1
            splnorm:   0.15000    
               vcte:    0.0000    
               rinn:    0.0000    
                rcs:    0.0000      0.0000    
            lambdas:    1.0000      1.0000    
-------------------------------------------------------------------------------
L=0  Nkbl=1  erefs: 0.17977+309
L=1  Nkbl=1  erefs: 0.17977+309
L=2  Nkbl=1  erefs: 0.17977+309
L=3  Nkbl=1  erefs: 0.17977+309
===============================================================================
</basis_specs>

atom: Called for N                     (Z =   7)

read_vps: Pseudopotential generation method:
read_vps: ATM3      Troullier-Martins                       
Total valence charge:    5.00000

read_vps: Pseudopotential includes a core correction:
read_vps: Pseudo-core for xc-correction

xc_check: Exchange-correlation functional:
xc_check: GGA Perdew, Burke & Ernzerhof 1996
V l=0 = -2*Zval/r beyond r=  1.4606
V l=1 = -2*Zval/r beyond r=  1.4606
V l=2 = -2*Zval/r beyond r=  1.4606
V l=3 = -2*Zval/r beyond r=  1.4606
All V_l potentials equal beyond r=  1.4606
This should be close to max(r_c) in ps generation
All pots = -2*Zval/r beyond r=  1.4606

VLOCAL1: 99.0% of the norm of Vloc inside     20.347 Ry
VLOCAL1: 99.9% of the norm of Vloc inside     46.372 Ry
atom: Maximum radius for 4*pi*r*r*local-pseudopot. charge    1.76189
atom: Maximum radius for r*vlocal+2*Zval:    1.53550
GHOST: No ghost state for L =  0
GHOST: No ghost state for L =  1
GHOST: No ghost state for L =  2
GHOST: No ghost state for L =  3

KBgen: Kleinman-Bylander projectors: 
   l= 0   rc=  1.634559   el= -1.363963   Ekb=  5.296955   kbcos=  0.335621
   l= 1   rc=  1.614250   el= -0.521451   Ekb= -5.259161   kbcos= -0.433408
   l= 2   rc=  1.718383   el=  0.001991   Ekb= -1.271464   kbcos= -0.007566
   l= 3   rc=  1.761893   el=  0.003093   Ekb= -0.494769   kbcos= -0.001015

KBgen: Total number of  Kleinman-Bylander projectors:   16
atom: -------------------------------------------------------------------------

atom: SANKEY-TYPE ORBITALS:
atom: Selected multiple-zeta basis: split     

SPLIT: Orbitals with angular momentum L= 0

SPLIT: Basis orbitals for state 2s

SPLIT: PAO cut-off radius determined from an
SPLIT: energy shift=  0.007350 Ry

   izeta = 1
                 lambda =    1.000000
                     rc =    4.071465
                 energy =   -1.356470
                kinetic =    1.176977
    potential(screened) =   -2.533447
       potential(ionic) =   -8.057990

   izeta = 2
                 rmatch =    2.905100
              splitnorm =    0.150000
                 energy =   -1.158343
                kinetic =    1.813009
    potential(screened) =   -2.971352
       potential(ionic) =   -8.901931

SPLIT: Orbitals with angular momentum L= 1

SPLIT: Basis orbitals for state 2p

SPLIT: PAO cut-off radius determined from an
SPLIT: energy shift=  0.007350 Ry

   izeta = 1
                 lambda =    1.000000
                     rc =    4.972977
                 energy =   -0.513884
                kinetic =    3.441732
    potential(screened) =   -3.955616
       potential(ionic) =   -9.287901

   izeta = 2
                 rmatch =    3.054066
              splitnorm =    0.150000
                 energy =   -0.318226
                kinetic =    5.125348
    potential(screened) =   -5.443573
       potential(ionic) =  -11.380999

POLgen: Perturbative polarization orbital with L=  2

POLgen: Polarization orbital for state 2p

   izeta = 1
                     rc =    4.972977
                 energy =    1.607437
                kinetic =    3.268125
    potential(screened) =   -1.660688
       potential(ionic) =   -5.973652
atom: Total number of Sankey-type orbitals: 13

atm_pop: Valence configuration (for local Pseudopot. screening):
 2s( 2.00)                                                            
 2p( 3.00)                                                            
Vna: chval, zval:    5.00000   5.00000

Vna:  Cut-off radius for the neutral-atom potential:   4.972977
comcore: Pseudo-core radius Rcore=  1.554824

atom: _________________________________________________________________________

<basis_specs>
===============================================================================
C                    Z=   6    Mass=  12.010        Charge= 0.17977+309
Lmxo=1 Lmxkb= 3    BasisType=split      Semic=F
L=0  Nsemic=0  Cnfigmx=2
          n=1  nzeta=2  polorb=0
            splnorm:   0.15000    
               vcte:    0.0000    
               rinn:    0.0000    
                rcs:    0.0000      0.0000    
            lambdas:    1.0000      1.0000    
L=1  Nsemic=0  Cnfigmx=2
          n=1  nzeta=2  polorb=1
            splnorm:   0.15000    
               vcte:    0.0000    
               rinn:    0.0000    
                rcs:    0.0000      0.0000    
            lambdas:    1.0000      1.0000    
-------------------------------------------------------------------------------
L=0  Nkbl=1  erefs: 0.17977+309
L=1  Nkbl=1  erefs: 0.17977+309
L=2  Nkbl=1  erefs: 0.17977+309
L=3  Nkbl=1  erefs: 0.17977+309
===============================================================================
</basis_specs>

atom: Called for C                     (Z =   6)

read_vps: Pseudopotential generation method:
read_vps: ATM3      Troullier-Martins                       
Total valence charge:    4.00000

read_vps: Pseudopotential includes a core correction:
read_vps: Pseudo-core for xc-correction

xc_check: Exchange-correlation functional:
xc_check: GGA Perdew, Burke & Ernzerhof 1996
V l=0 = -2*Zval/r beyond r=  1.5227
V l=1 = -2*Zval/r beyond r=  1.5227
V l=2 = -2*Zval/r beyond r=  1.5227
V l=3 = -2*Zval/r beyond r=  1.5038
All V_l potentials equal beyond r=  1.5227
This should be close to max(r_c) in ps generation
All pots = -2*Zval/r beyond r=  1.5227

VLOCAL1: 99.0% of the norm of Vloc inside     18.722 Ry
VLOCAL1: 99.9% of the norm of Vloc inside     42.668 Ry
atom: Maximum radius for 4*pi*r*r*local-pseudopot. charge    1.83678
atom: Maximum radius for r*vlocal+2*Zval:    1.58088
GHOST: No ghost state for L =  0
GHOST: No ghost state for L =  1
GHOST: No ghost state for L =  2
GHOST: No ghost state for L =  3

KBgen: Kleinman-Bylander projectors: 
   l= 0   rc=  1.704034   el= -1.009801   Ekb=  5.335044   kbcos=  0.316824
   l= 1   rc=  1.704034   el= -0.388707   Ekb= -3.785862   kbcos= -0.366464
   l= 2   rc=  1.791422   el=  0.001971   Ekb= -0.970471   kbcos= -0.009212
   l= 3   rc=  1.859892   el=  0.003065   Ekb= -0.399525   kbcos= -0.001223

KBgen: Total number of  Kleinman-Bylander projectors:   16
atom: -------------------------------------------------------------------------

atom: SANKEY-TYPE ORBITALS:
atom: Selected multiple-zeta basis: split     

SPLIT: Orbitals with angular momentum L= 0

SPLIT: Basis orbitals for state 2s

SPLIT: PAO cut-off radius determined from an
SPLIT: energy shift=  0.007350 Ry

   izeta = 1
                 lambda =    1.000000
                     rc =    4.632753
                 energy =   -1.002270
                kinetic =    0.855760
    potential(screened) =   -1.858031
       potential(ionic) =   -5.417575

   izeta = 2
                 rmatch =    3.431921
              splitnorm =    0.150000
                 energy =   -0.867111
                kinetic =    1.300804
    potential(screened) =   -2.167915
       potential(ionic) =   -5.962684

SPLIT: Orbitals with angular momentum L= 1

SPLIT: Basis orbitals for state 2p

SPLIT: PAO cut-off radius determined from an
SPLIT: energy shift=  0.007350 Ry

   izeta = 1
                 lambda =    1.000000
                     rc =    5.658549
                 energy =   -0.381140
                kinetic =    2.399701
    potential(screened) =   -2.780841
       potential(ionic) =   -6.206085

   izeta = 2
                 rmatch =    3.653288
              splitnorm =    0.150000
                 energy =   -0.249149
                kinetic =    3.542762
    potential(screened) =   -3.791911
       potential(ionic) =   -7.581078

POLgen: Perturbative polarization orbital with L=  2

POLgen: Polarization orbital for state 2p

   izeta = 1
                     rc =    5.658549
                 energy =    1.109913
                kinetic =    2.304789
    potential(screened) =   -1.194876
       potential(ionic) =   -4.013592
atom: Total number of Sankey-type orbitals: 13

atm_pop: Valence configuration (for local Pseudopot. screening):
 2s( 2.00)                                                            
 2p( 2.00)                                                            
Vna: chval, zval:    4.00000   4.00000

Vna:  Cut-off radius for the neutral-atom potential:   5.658549
comcore: Pseudo-core radius Rcore=  1.791422

atom: _________________________________________________________________________

prinput: Basis input ----------------------------------------------------------

PAO.BasisType split     

%block ChemicalSpeciesLabel
    1    7 N                       # Species index, atomic number, species label
    2    6 C                       # Species index, atomic number, species label
%endblock ChemicalSpeciesLabel

%block PAO.Basis                 # Define Basis set
N                     2                    # Species label, number of l-shells
 n=2   0   2                         # n, l, Nzeta 
   4.071      2.905   
   1.000      1.000   
 n=2   1   2 P   1                   # n, l, Nzeta, Polarization, NzetaPol
   4.973      3.054   
   1.000      1.000   
C                     2                    # Species label, number of l-shells
 n=2   0   2                         # n, l, Nzeta 
   4.633      3.432   
   1.000      1.000   
 n=2   1   2 P   1                   # n, l, Nzeta, Polarization, NzetaPol
   5.659      3.653   
   1.000      1.000   
%endblock PAO.Basis

prinput: ----------------------------------------------------------------------

coor:   Atomic-coordinates input format  =     Fractional

siesta: Atomic coordinates (Bohr) and species
siesta:     -0.02582   2.59549   0.00000  1        1
siesta:     -0.02582   5.28395   0.00000  1        2
siesta:     -4.68258  34.85847   0.00000  1        3
siesta:     -4.68258  37.54693   0.00000  1        4
siesta:      2.30256   6.62836   0.00000  1        5
siesta:      2.30256   9.31683   0.00000  1        6
siesta:     -2.35420   6.62836   0.00000  1        7
siesta:     -2.35420   9.31683   0.00000  1        8
siesta:     -0.02582  10.66124   0.00000  1        9
siesta:     -0.02582  13.34970   0.00000  1       10
siesta:     -2.35420  14.69411   0.00000  1       11
siesta:     -2.35420  17.38257   0.00000  1       12
siesta:     -0.02582  18.72698   0.00000  1       13
siesta:     -0.02582  21.41544   0.00000  1       14
siesta:     -4.68258  18.72698   0.00000  1       15
siesta:     -4.68258  21.41544   0.00000  1       16
siesta:     -2.35420  22.75985   0.00000  1       17
siesta:     -2.35420  25.44831   0.00000  1       18
siesta:    -11.66772  22.75985   0.00000  1       19
siesta:    -11.66772  25.44831   0.00000  1       20
siesta:     -4.68258  26.79272   0.00000  1       21
siesta:     -4.68258  29.48119   0.00000  1       22
siesta:     -2.35420  30.82560   0.00000  1       23
siesta:     -2.35420  33.51406   0.00000  1       24
siesta:     -7.01096  30.82560   0.00000  1       25
siesta:     -7.01096  33.51406   0.00000  1       26
siesta:     -2.35420  38.89134   0.00000  2       27
siesta:     -2.35420  41.57980   0.00000  2       28
siesta:      2.30256  38.89134   0.00000  2       29
siesta:      2.30256  41.57980   0.00000  2       30
siesta:      4.63094  34.85847   0.00000  2       31
siesta:      4.63094  37.54693   0.00000  2       32
siesta:      6.95932  30.82560   0.00000  2       33
siesta:      6.95932  33.51406   0.00000  2       34
siesta:      9.28770  26.79272   0.00000  2       35
siesta:      9.28770  29.48119   0.00000  2       36
siesta:      4.63094  10.66124   0.00000  2       37
siesta:      4.63094  13.34970   0.00000  2       38
siesta:      6.95932  14.69411   0.00000  2       39
siesta:      6.95932  17.38257   0.00000  2       40
siesta:      9.28770  18.72698   0.00000  2       41
siesta:      9.28770  21.41544   0.00000  2       42
siesta:     11.61608  22.75985   0.00000  2       43
siesta:     11.61608  25.44831   0.00000  2       44
siesta:      2.30256  14.69411   0.00000  2       45
siesta:      2.30256  17.38257   0.00000  2       46
siesta:      4.63094  18.72698   0.00000  2       47
siesta:      4.63094  21.41544   0.00000  2       48
siesta:      6.95932  22.75985   0.00000  2       49
siesta:      6.95932  25.44831   0.00000  2       50
siesta:     -4.68258  10.66124   0.00000  2       51
siesta:     -4.68258  13.34970   0.00000  2       52
siesta:      2.30256  22.75985   0.00000  2       53
siesta:      2.30256  25.44831   0.00000  2       54
siesta:     -7.01096  14.69411   0.00000  2       55
siesta:     -7.01096  17.38257   0.00000  2       56
siesta:     -9.33934  18.72698   0.00000  2       57
siesta:     -9.33934  21.41544   0.00000  2       58
siesta:     -7.01096  22.75985   0.00000  2       59
siesta:     -7.01096  25.44831   0.00000  2       60
siesta:     -9.33934  26.79272   0.00000  2       61
siesta:     -9.33934  29.48119   0.00000  2       62
siesta:      4.63094  26.79272   0.00000  2       63
siesta:      4.63094  29.48119   0.00000  2       64
siesta:     -0.02582  26.79272   0.00000  2       65
siesta:     -0.02582  29.48119   0.00000  2       66
siesta:      2.30256  30.82560   0.00000  2       67
siesta:      2.30256  33.51406   0.00000  2       68
siesta:     -0.02582  34.85847   0.00000  2       69
siesta:     -0.02582  37.54693   0.00000  2       70
siesta:     -0.02582  42.92421   0.00000  2       71
siesta:     -0.02582  45.61267   0.00000  2       72

siesta: System type = slab      

initatomlists: Number of atoms, orbitals, and projectors:     72   936  1152

siesta: ******************** Simulation parameters ****************************
siesta:
siesta: The following are some of the parameters of the simulation.
siesta: A complete list of the parameters used, including default values,
siesta: can be found in file out.fdf
siesta:
redata: Non-Collinear-spin run           =     F
redata: SpinPolarized (Up/Down) run      =     F
redata: Number of spin components        =     1
redata: Long output                      =     F
redata: Number of Atomic Species         =        2
redata: Charge density info will appear in .RHO file
redata: Write Mulliken Pop.              =     NO
redata: Mesh Cutoff                      =   200.0000  Ry
redata: Net charge of the system         =     0.0000 |e|
redata: Max. number of SCF Iter          =      500
redata: SCF convergence failure will abort job
redata: Performing Pulay mixing using    =    10 iterations
redata: Mix DM in first SCF step ?       =     F
redata: Write Pulay info on disk?        =     F
redata: Discard 1st Pulay DM after  kick =     F
redata: New DM Mixing Weight             =     0.0500
redata: New DM Occupancy tolerance       = 0.000000000001
redata: No kicks to SCF
redata: DM Mixing Weight for Kicks       =     0.5000
redata: DM Tolerance for SCF             =     0.000100
redata: Require Energy convergence for SCF =     F
redata: DM Energy tolerance for SCF      =     0.000100 eV
redata: Require Harris convergence for SCF =     F
redata: DM Harris energy tolerance for SCF =     0.000100 eV
redata: Using Saved Data (generic)   =     F
redata: Use continuation files for DM    =     T
redata: Neglect nonoverlap interactions  =     F
redata: Method of Calculation            =     Diagonalization
redata: Divide and Conquer               =     T
redata: Electronic Temperature           =     0.0019  Ry
redata: Fix the spin of the system       =     F
redata: Dynamics option                  =     Verlet MD run
redata: Initial MD time step             =        1
redata:   Final MD time step             =        1
redata: Length of MD time step           =     1.0000  fs
redata: Initial Temperature of MD run    =     0.0000  K
redata: Perform a MD quench              =     F
redata: ***********************************************************************
Total number of electrons:   314.000000
Total ionic charge:   314.000000

* ProcessorY, Blocksize:    2  24

k-point displ. along   1 input, could be:     0.50    0.00
k-point displ. along   2 input, could be:     0.50    0.00
 Kpoints in:          231 . Kpoints trimmed:          231

siesta: k-grid: Number of k-points =   231
siesta: k-grid: Cutoff (effective) =     5.000 Ang
siesta: k-grid: Supercell and displacements
siesta: k-grid:   21   0   0      0.500
siesta: k-grid:    0  21   0      0.500
siesta: k-grid:    0   0   1      0.000
Naive supercell factors:     2    2    2

superc: Internal auxiliary supercell:     2 x     2 x     2  =       8
superc: Number of atoms, orbitals, and projectors:    576   7488   9216

* Maximum dynamic memory allocated =     4 MB

siesta:                 ==============================
                            Begin MD step =      1
                        ==============================

superc: Internal auxiliary supercell:     2 x     2 x     2  =       8
superc: Number of atoms, orbitals, and projectors:    576   7488   9216

outcell: Unit cell vectors (Ang):
       12.804619    7.392750    0.000000
        0.000000   14.785500    0.000000
        0.000000    0.000000   10.000000

outcell: Cell vector modules (Ang)   :   14.785500   14.785500   10.000000
outcell: Cell angles (23,13,12) (deg):     90.0000     90.0000     60.0000
outcell: Cell volume (Ang**3)        :   1893.2269
New_DM. Step:     1
Initializing Density Matrix...

InitMesh: MESH =   120 x   120 x    90 =     1296000
InitMesh: Mesh cutoff (required, used) =   200.000   223.865 Ry

* Maximum dynamic memory allocated =   177 MB

stepf: Fermi-Dirac step function

siesta: Program's energy decomposition (eV):
siesta: Ebs     =     -6446.484278
siesta: Eions   =     22582.429020
siesta: Ena     =      5011.440259
siesta: Ekin    =      8560.167659
siesta: Enl     =      -140.179571
siesta: DEna    =        -0.000015
siesta: DUscf   =         0.000000
siesta: DUext   =         0.000000
siesta: Exc     =     -4835.224991
siesta: eta*DQ  =         0.000000
siesta: Emadel  =         0.000000
siesta: Emeta   =         0.000000
siesta: Emolmec =         0.000000
siesta: Ekinion =         0.000000
siesta: Eharris =    -13563.862458
siesta: Etot    =    -13986.225679
siesta: FreeEng =    -13986.225679

siesta: iscf   Eharris(eV)      E_KS(eV)   FreeEng(eV)   dDmax  Ef(eV)
siesta:    1   -13563.8625   -13986.2257   -13986.2257  6.1818 -6.6914
timer: Routine,Calls,Time,% = IterSCF        1    4065.920  99.72
elaps: Routine,Calls,Wall,% = IterSCF        1     508.818  99.72
siesta:    2   -17315.8884   -12988.3747   -12988.4085 15.0464 -3.7067
siesta:    3   -13465.5350   -13788.7135   -13788.7751  2.6567 -4.9872
siesta:    4   -13438.6957   -13611.8949   -13611.9712  0.9689 -4.1088
siesta:    5   -13411.9477   -13532.6384   -13532.6908  0.8252 -3.8565
siesta:    6   -13408.3952   -13510.7162   -13510.7788  0.8264 -3.7679
siesta:    7   -13405.5747   -13499.1143   -13499.1831  0.7054 -3.7772
siesta:    8   -13404.0869   -13461.2197   -13461.2781  0.5963 -3.8048
siesta:    9   -13403.0734   -13444.9711   -13445.0151  0.4498 -3.8002
siesta:   10   -13402.4510   -13416.6315   -13416.7003  0.3212 -3.7468
siesta:   11   -13402.5497   -13402.1082   -13402.1883  0.3320 -3.7381
siesta:   12   -13402.3115   -13394.8282   -13394.9016  0.2561 -3.7695
siesta:   13   -13401.4760   -13389.1903   -13389.2607  0.1550 -3.7899
siesta:   14   -13401.2782   -13389.7208   -13389.7905  0.1214 -3.8153
siesta:   15   -13401.1480   -13389.5635   -13389.6389  0.1472 -3.8047
siesta:   16   -13401.0264   -13390.5178   -13390.5819  0.0962 -3.8137
siesta:   17   -13401.0110   -13391.7347   -13391.8188  0.0571 -3.8153
siesta:   18   -13400.9715   -13395.5390   -13395.6267  0.0755 -3.8196
siesta:   19   -13400.9632   -13397.0343   -13397.1183  0.0484 -3.8227
siesta:   20   -13400.9557   -13398.8837   -13398.9677  0.0349 -3.8249
siesta:   21   -13400.9526   -13400.4280   -13400.5136  0.0228 -3.8244
siesta:   22   -13400.9502   -13400.7846   -13400.8701  0.0114 -3.8223
siesta:   23   -13400.9492   -13401.4519   -13401.5380  0.0125 -3.8161
siesta:   24   -13400.9494   -13401.2152   -13401.3019  0.0051 -3.8138
siesta:   25   -13400.9489   -13400.9502   -13401.0357  0.0062 -3.8133
siesta:   26   -13400.9485   -13400.9035   -13400.9889  0.0036 -3.8137
siesta:   27   -13400.9483   -13400.8742   -13400.9596  0.0026 -3.8140
siesta:   28   -13400.9484   -13400.8256   -13400.9112  0.0021 -3.8141
siesta:   29   -13400.9484   -13400.8009   -13400.8863  0.0020 -3.8140
siesta:   30   -13400.9483   -13400.8974   -13400.9828  0.0009 -3.8141
siesta:   31   -13400.9484   -13400.9311   -13401.0166  0.0008 -3.8141
siesta:   32   -13400.9485   -13400.9277   -13401.0131  0.0010 -3.8142
siesta:   33   -13400.9484   -13400.9473   -13401.0327  0.0004 -3.8145
siesta:   34   -13400.9484   -13400.9442   -13401.0296  0.0002 -3.8146
siesta:   35   -13400.9484   -13400.9469   -13401.0323  0.0001 -3.8146
siesta:   36   -13400.9484   -13400.9484   -13401.0338  0.0001 -3.8145

siesta: E_KS(eV) =           -13400.9496

siesta: E_KS - E_eggbox =    -13400.9496

siesta: Atomic forces (eV/Ang):
----------------------------------------
   Tot   -0.048501   -0.119361    0.000000
----------------------------------------
   Max  774.366131
   Res  190.365447    sqrt( Sum f_i^2 / 3N )
----------------------------------------
   Max  774.366131    constrained

Stress-tensor-Voigt (kbar):     -651.56    -3461.58       -0.09        4.95        0.00        0.00
(Free)E + p*V (eV/cell)   -11780.9042
Target enthalpy (eV/cell)   -13401.0350

siesta: Stress tensor (static) (eV/Ang**3):
        -0.406670    0.003090    0.000000
         0.003091   -2.160524    0.000000
         0.000000    0.000000   -0.000058

siesta: Pressure (static):       1371.07906532  kBar

siesta: Stress tensor (total) (eV/Ang**3):
        -0.406670    0.003090    0.000000
         0.003091   -2.160524    0.000000
         0.000000    0.000000   -0.000058

siesta: Pressure (total):       1371.07906532  kBar

siesta: Temp_ion =       0.000 K

* Maximum dynamic memory allocated =   194 MB
Computing bands...

siesta: Program's energy decomposition (eV):
siesta: Ebs     =     -5197.501234
siesta: Eions   =     22582.429020
siesta: Ena     =      5011.440259
siesta: Ekin    =     11832.036624
siesta: Enl     =     -1910.144980
siesta: DEna    =      -846.457223
siesta: DUscf   =       117.172291
siesta: DUext   =         0.000000
siesta: Exc     =     -5022.567511
siesta: eta*DQ  =         0.000000
siesta: Emadel  =         0.000000
siesta: Emeta   =         0.000000
siesta: Emolmec =         0.000000
siesta: Ekinion =         0.000000
siesta: Eharris =    -13400.948395
siesta: Etot    =    -13400.949559
siesta: FreeEng =    -13401.034984

siesta: Final energy (eV):
siesta:  Band Struct. =   -5197.501234
siesta:       Kinetic =   11832.036624
siesta:       Hartree =   38680.820928
siesta:    Ext. field =       0.000000
siesta:   Exch.-corr. =   -5022.567511
siesta:  Ion-electron =  -88669.121579
siesta:       Ion-ion =   29777.881979
siesta:       Ekinion =       0.000000
siesta:         Total =  -13400.949559

siesta: Atomic forces (eV/Ang):
siesta:      1    0.638238  646.427802    0.000000
siesta:      2    0.520315 -114.669755    0.000000
siesta:      3  -32.887423    7.270837    0.000000
siesta:      4  -15.135150 -653.006006    0.000000
siesta:      5   21.414432  660.652579    0.000000
siesta:      6    1.387384 -105.274528    0.000000
siesta:      7  -27.368109  747.087989    0.000000
siesta:      8    3.435471 -112.384365    0.000000
siesta:      9   -4.014090  667.742451    0.000000
siesta:     10    3.658463 -106.900384    0.000000
siesta:     11   -5.060724  678.152462    0.000000
siesta:     12  -36.556328  -12.589023    0.000000
siesta:     13   22.992332  681.431882    0.000000
siesta:     14    1.547053   -4.290716    0.000000
siesta:     15   -0.991308    2.526131    0.000000
siesta:     16   -1.107497    1.006985    0.000000
siesta:     17   -2.003753    0.022800    0.000000
siesta:     18   -0.834596    2.090334    0.000000
siesta:     19    1.231944    3.293556    0.000000
siesta:     20    0.762661   -3.008076    0.000000
siesta:     21   -0.030885   -0.086842    0.000000
siesta:     22   -0.057126   -2.001127    0.000000
siesta:     23  -32.511149    0.108309    0.000000
siesta:     24    5.356580 -774.366131    0.000000
siesta:     25   -5.418915    0.221974    0.000000
siesta:     26   -0.071455   -3.238160    0.000000
siesta:     27    1.897765  118.905898    0.000000
siesta:     28  -17.355013 -657.325057    0.000000
siesta:     29    0.797443  120.754874    0.000000
siesta:     30   -2.293134 -547.645728    0.000000
siesta:     31   27.248899    2.697959    0.000000
siesta:     32   18.004277 -551.619005    0.000000
siesta:     33    2.079901    0.260905    0.000000
siesta:     34   -3.355426    1.426096    0.000000
siesta:     35    2.231191    2.710393    0.000000
siesta:     36   -1.374891   -0.240433    0.000000
siesta:     37   32.905680  555.201365    0.000000
siesta:     38   27.886305   -4.175644    0.000000
siesta:     39   -3.328143   -1.849580    0.000000
siesta:     40    1.917790    0.049131    0.000000
siesta:     41   -1.401249    0.094535    0.000000
siesta:     42    1.744533   -2.438799    0.000000
siesta:     43    0.038993    7.707052    0.000000
siesta:     44   -0.352064   -7.727951    0.000000
siesta:     45   25.791035  561.299670    0.000000
siesta:     46   25.661593  -10.208135    0.000000
siesta:     47   -0.997259    2.978256    0.000000
siesta:     48   -0.519037   -0.782410    0.000000
siesta:     49   -0.031460    1.092310    0.000000
siesta:     50   -0.350032   -0.824046    0.000000
siesta:     51  -36.842453  660.755027    0.000000
siesta:     52  -27.265850   -9.007143    0.000000
siesta:     53    0.605288    0.832781    0.000000
siesta:     54   -0.944325   -1.309736    0.000000
siesta:     55    1.813505    0.009271    0.000000
siesta:     56   -1.701561   -0.595368    0.000000
siesta:     57    0.258647    0.106596    0.000000
siesta:     58   -1.512818   -0.044503    0.000000
siesta:     59    1.891112    0.992312    0.000000
siesta:     60    0.512695   -1.058016    0.000000
siesta:     61   -0.266737   -0.160928    0.000000
siesta:     62    1.467974    2.176021    0.000000
siesta:     63    0.655510    0.254734    0.000000
siesta:     64   -1.448710   -3.072726    0.000000
siesta:     65   -0.412627    0.591882    0.000000
siesta:     66   12.471499 -685.895807    0.000000
siesta:     67   23.476487    1.042917    0.000000
siesta:     68   -0.067592 -683.976653    0.000000
siesta:     69    7.549371  116.638612    0.000000
siesta:     70   -2.718762 -674.658853    0.000000
siesta:     71    0.291338  120.286216    0.000000
siesta:     72  -13.604554 -640.588631    0.000000
siesta: ----------------------------------------
siesta:    Tot   -0.048501   -0.119361    0.000000

siesta: Stress tensor (static) (eV/Ang**3):
siesta:    -0.406670    0.003090    0.000000
siesta:     0.003091   -2.160524    0.000000
siesta:     0.000000    0.000000   -0.000058

siesta: Cell volume =       1893.226884 Ang**3

siesta: Pressure (static):
siesta:                Solid            Molecule  Units
siesta:           0.00932022          0.15263591  Ry/Bohr**3
siesta:           0.85575099         14.01451056  eV/Ang**3
siesta:        1371.07906532      22453.96405872  kBar
(Free)E+ p_basis*V_orbitals  =      -13374.014420
(Free)Eharris+ p_basis*V_orbitals  =      -13374.014460

siesta: Electric dipole (a.u.)  =    0.000000    0.000000    0.000000
siesta: Electric dipole (Debye) =    0.000000    0.000000    0.000000

* Maximum dynamic memory allocated : Node    0 =   194 MB
* Maximum dynamic memory allocated : Node    1 =    70 MB
* Maximum dynamic memory allocated : Node    2 =    70 MB
* Maximum dynamic memory allocated : Node    3 =   184 MB
* Maximum dynamic memory allocated : Node    4 =   187 MB
* Maximum dynamic memory allocated : Node    5 =    70 MB
* Maximum dynamic memory allocated : Node    6 =    71 MB
* Maximum dynamic memory allocated : Node    7 =   170 MB

* Maximum memory occured during matrixMtoO                    

timer: CPU execution times:
timer:  Routine       Calls   Time/call    Tot.time        %
timer:  siesta            1  144769.872  144769.872   100.00
timer:  Setup             1       3.073       3.073     0.00
timer:  bands             3     268.649     805.948     0.56
timer:  writewave         1       0.020       0.020     0.00
timer:  KSV_init          1       0.002       0.002     0.00
timer:  IterMD            1  143954.972  143954.972    99.44
timer:  hsparse           1       0.232       0.232     0.00
timer:  overlap           1       7.703       7.703     0.01
timer:  IterSCF          36    3994.334  143796.016    99.33
timer:  kinefsm           2       3.983       7.966     0.01
timer:  nlefsm            2      18.263      36.525     0.03
timer:  DHSCF            37      80.016    2960.593     2.05
timer:  DHSCF1            1       0.758       0.758     0.00
timer:  DHSCF2            1      32.080      32.080     0.02
timer:  REORD           298       0.010       2.987     0.00
timer:  POISON           38       2.239      85.093     0.06
timer:  DHSCF3           37      78.304    2897.239     2.00
timer:  rhoofd           37      15.833     585.808     0.40
timer:  cellXC           37       3.454     127.807     0.09
timer:  vmat             37      37.584    1390.611     0.96
timer:  MolMec            2       0.000       0.000     0.00
timer:  diagon           36    3913.207  140875.440    97.31
timer:  c-eigval       8437       6.672   56292.805    38.88
timer:  c-buildHS      8437       0.110     931.523     0.64
timer:  cdiag         16753       6.831  114443.569    79.05
timer:  cdiag1        16753       0.428    7166.798     4.95
timer:  cdiag2        16753       1.917   32118.069    22.19
timer:  cdiag3        16753       3.942   66040.266    45.62
timer:  cdiag4        16753       0.204    3417.296     2.36
timer:  c-eigvec       8316       7.173   59648.057    41.20
timer:  c-buildD       8316       3.090   25693.724    17.75
timer:  DHSCF4            1      28.568      28.568     0.02
timer:  dfscf             1      26.807      26.807     0.02
timer:  overfsm           1       0.393       0.393     0.00
timer:  optical           1       5.127       5.127     0.00
  

elaps: ELAPSED times:
elaps:  Routine       Calls   Time/call    Tot.time        %
elaps:  siesta            1   18115.480   18115.480   100.00
elaps:  Setup             1       0.384       0.384     0.00
elaps:  bands             3      33.632     100.896     0.56
elaps:  writewave         1       0.002       0.002     0.00
elaps:  KSV_init          1       0.000       0.000     0.00
elaps:  IterMD            1   18013.523   18013.523    99.44
elaps:  hsparse           1       0.029       0.029     0.00
elaps:  overlap           1       0.977       0.977     0.01
elaps:  IterSCF          36     499.823   17993.638    99.33
elaps:  kinefsm           2       0.498       0.997     0.01
elaps:  nlefsm            2       2.281       4.561     0.03
elaps:  DHSCF            37      10.109     374.034     2.06
elaps:  DHSCF1            1       0.099       0.099     0.00
elaps:  DHSCF2            1       4.010       4.010     0.02
elaps:  REORD           298       0.001       0.392     0.00
elaps:  POISON           38       0.280      10.644     0.06
elaps:  DHSCF3           37       9.796     362.467     2.00
elaps:  rhoofd           37       4.256     157.482     0.87
elaps:  cellXC           37       0.431      15.948     0.09
elaps:  vmat             37       4.702     173.969     0.96
elaps:  MolMec            2       0.000       0.000     0.00
elaps:  diagon           36     489.689   17628.788    97.31
elaps:  c-eigval       8437       0.835    7043.141    38.88
elaps:  c-buildHS      8437       0.015     128.464     0.71
elaps:  cdiag         16753       0.846   14167.609    78.21
elaps:  cdiag1        16753       0.053     887.251     4.90
elaps:  cdiag2        16753       0.240    4018.695    22.18
elaps:  cdiag3        16753       0.494    8274.175    45.67
elaps:  cdiag4        16753       0.026     435.784     2.41
elaps:  c-eigvec       8316       0.883    7343.103    40.53
elaps:  c-buildD       8316       0.401    3336.075    18.42
elaps:  DHSCF4            1       7.191       7.191     0.04
elaps:  dfscf             1       6.820       6.820     0.04
elaps:  overfsm           1       0.051       0.051     0.00
elaps:  optical           1       0.000       0.000     0.00
  
>> End of run:  20-APR-2016   5:57:30
