Siesta Version:                                        siesta-3.2-pl-3
Architecture  : x86_64-unknown-linux-gnu--unknown
Compiler flags: mpiifort -g -O2 -fPIC -xSSE4.1 -fp-model source -shared-intel 
PARALLEL version

* Running on    8 nodes in parallel
>> Start of run:  21-APR-2016  22:00:06

                           ***********************       
                           *  WELCOME TO SIESTA  *       
                           ***********************       

reinit: Reading from standard input
************************** Dump of input data file ****************************
#(1) General system descriptors
SystemName            GRP_doping    # Descriptive name of the system
SystemLabel           GRP_doping    # Short name for naming files
%include STRUCT.fdf
%include KPT.fdf
%include BASIS.fdf
#%include TS.fdf # for transiesta calculation
#(4) DFT, Grid, SCF
XC.functional         GGA           # LDA or GGA (default = LDA)
XC.authors            PBE           # CA (Ceperley-Aldr) = PZ
                                    #    (Perdew-Zunger) - LDA - Default
                                    # PW92 (Perdew-Wang-92) - LDA
                                    # PBE (Perdew-Burke-Ernzerhof) - GGA
MeshCutoff            200.000000    Ry      # Default: 50.0 Ry ~ 0.444 Bohr
                                    #         100.0 Ry ~ 0.314 Bohr
MaxSCFIterations      500           # Default: 50
DM.MixingWeight       0.05          # Default: 0.25
DM.NumberPulay        10            # Default: 0
DM.PulayOnFile        F             # SystemLabel.P1, SystemLabel.P2
DM.Tolerance          1.d-4         # Default: 1.d-4
DM.UseSaveDM          .true.        # because of the bug
SCFMustConverge       .true.
NeglNonOverlapInt     F             # Default: F
#(5) Eigenvalue problem: order-N or diagonalization
SolutionMethod        Diagon        # or Transiesta
ElectronicTemperature 300.0 K       # Default: 300.0 K
#(6) Molecular dynamics and relaxations
#MD.TypeOfRun          CG            # Type of dynamics:
#MD.VariableCell       F
#MD.NumCGsteps         0           # 0 for single-point / 100 for gopt
#MD.MaxCGDispl         0.2 Bohr      # Default: 0.2 Bohr
#MD.MaxForceTol        0.02 eV/Ang   # Default: 0.04 eV/Ang
#MD.MaxStressTol       1.0 GPa       # Default: 1.0 GPa
# Geometry Constraints
#%block GeometryConstraints
#	position from 1 to 44
#%endblock GeometryConstraints
BandLinesScale   pi/a
%block BandLines
 1   0.00000000  0.00000000  0.00000000
50   0.00000000  0.07809418  0.00000000
50   0.04509075  0.07809242  0.00000000
20   0.00000000  0.00000000  0.00000000
%endblock BandLines
************************** End of input data file *****************************

reinit: -----------------------------------------------------------------------
reinit: System Name: GRP_doping
reinit: -----------------------------------------------------------------------
reinit: System Label: GRP_doping                                                  
reinit: -----------------------------------------------------------------------

initatom: Reading input for the pseudopotentials and atomic orbitals ----------
 Species number:            1  Label: B Atomic number:           5
 Species number:            2  Label: C Atomic number:           6
Ground state valence configuration:   2s02  2p01
Reading pseudopotential information in formatted form from B.psf

Valence configuration for pseudopotential generation:
2s( 2.00) rc: 1.74
2p( 1.00) rc: 1.74
3d( 0.00) rc: 1.74
4f( 0.00) rc: 1.74
Ground state valence configuration:   2s02  2p02
Reading pseudopotential information in formatted form from C.psf

Valence configuration for pseudopotential generation:
2s( 2.00) rc: 1.54
2p( 2.00) rc: 1.54
3d( 0.00) rc: 1.54
4f( 0.00) rc: 1.54
For B, standard SIESTA heuristics set lmxkb to 3
 (one more than the basis l, including polarization orbitals).
Use PS.lmax or PS.KBprojectors blocks to override.
For C, standard SIESTA heuristics set lmxkb to 3
 (one more than the basis l, including polarization orbitals).
Use PS.lmax or PS.KBprojectors blocks to override.

<basis_specs>
===============================================================================
B                    Z=   5    Mass=  10.810        Charge= 0.17977+309
Lmxo=1 Lmxkb= 3    BasisType=split      Semic=F
L=0  Nsemic=0  Cnfigmx=2
          n=1  nzeta=2  polorb=0
            splnorm:   0.15000    
               vcte:    0.0000    
               rinn:    0.0000    
                rcs:    0.0000      0.0000    
            lambdas:    1.0000      1.0000    
L=1  Nsemic=0  Cnfigmx=2
          n=1  nzeta=2  polorb=1
            splnorm:   0.15000    
               vcte:    0.0000    
               rinn:    0.0000    
                rcs:    0.0000      0.0000    
            lambdas:    1.0000      1.0000    
-------------------------------------------------------------------------------
L=0  Nkbl=1  erefs: 0.17977+309
L=1  Nkbl=1  erefs: 0.17977+309
L=2  Nkbl=1  erefs: 0.17977+309
L=3  Nkbl=1  erefs: 0.17977+309
===============================================================================
</basis_specs>

atom: Called for B                     (Z =   5)

read_vps: Pseudopotential generation method:
read_vps: ATM3      Troullier-Martins                       
Total valence charge:    3.00000

read_vps: Pseudopotential includes a core correction:
read_vps: Pseudo-core for xc-correction

xc_check: Exchange-correlation functional:
xc_check: GGA Perdew, Burke & Ernzerhof 1996
V l=0 = -2*Zval/r beyond r=  1.7165
V l=1 = -2*Zval/r beyond r=  1.7165
V l=2 = -2*Zval/r beyond r=  1.7165
V l=3 = -2*Zval/r beyond r=  1.6951
All V_l potentials equal beyond r=  1.7165
This should be close to max(r_c) in ps generation
All pots = -2*Zval/r beyond r=  1.7165

VLOCAL1: 99.0% of the norm of Vloc inside     14.733 Ry
VLOCAL1: 99.9% of the norm of Vloc inside     33.577 Ry
atom: Maximum radius for 4*pi*r*r*local-pseudopot. charge    2.04484
atom: Maximum radius for r*vlocal+2*Zval:    1.75994
GHOST: No ghost state for L =  0
GHOST: No ghost state for L =  1
GHOST: No ghost state for L =  2
GHOST: No ghost state for L =  3

KBgen: Kleinman-Bylander projectors: 
   l= 0   rc=  1.897051   el= -0.693730   Ekb=  4.595746   kbcos=  0.286105
   l= 1   rc=  1.920920   el= -0.265236   Ekb= -2.350715   kbcos= -0.315747
   l= 2   rc=  2.044840   el=  0.002055   Ekb= -0.690767   kbcos= -0.013822
   l= 3   rc=  2.149707   el=  0.003188   Ekb= -0.315358   kbcos= -0.002055

KBgen: Total number of  Kleinman-Bylander projectors:   16
atom: -------------------------------------------------------------------------

atom: SANKEY-TYPE ORBITALS:
atom: Selected multiple-zeta basis: split     

SPLIT: Orbitals with angular momentum L= 0

SPLIT: Basis orbitals for state 2s

SPLIT: PAO cut-off radius determined from an
SPLIT: energy shift=  0.007350 Ry

   izeta = 1
                 lambda =    1.000000
                     rc =    5.422032
                 energy =   -0.686029
                kinetic =    0.576707
    potential(screened) =   -1.262736
       potential(ionic) =   -3.271094

   izeta = 2
                 rmatch =    4.222573
              splitnorm =    0.150000
                 energy =   -0.602132
                kinetic =    0.858975
    potential(screened) =   -1.461107
       potential(ionic) =   -3.582536

SPLIT: Orbitals with angular momentum L= 1

SPLIT: Basis orbitals for state 2p

SPLIT: PAO cut-off radius determined from an
SPLIT: energy shift=  0.007350 Ry

   izeta = 1
                 lambda =    1.000000
                     rc =    6.790259
                 energy =   -0.258578
                kinetic =    1.481412
    potential(screened) =   -1.739989
       potential(ionic) =   -3.657461

   izeta = 2
                 rmatch =    4.608740
              splitnorm =    0.150000
                 energy =   -0.173757
                kinetic =    2.186690
    potential(screened) =   -2.360447
       potential(ionic) =   -4.464260

POLgen: Perturbative polarization orbital with L=  2

POLgen: Polarization orbital for state 2p

   izeta = 1
                     rc =    6.790259
                 energy =    0.684082
                kinetic =    1.471481
    potential(screened) =   -0.787399
       potential(ionic) =   -2.406985
atom: Total number of Sankey-type orbitals: 13

atm_pop: Valence configuration (for local Pseudopot. screening):
 2s( 2.00)                                                            
 2p( 1.00)                                                            
Vna: chval, zval:    3.00000   3.00000

Vna:  Cut-off radius for the neutral-atom potential:   6.790259
comcore: Pseudo-core radius Rcore=  2.122997

atom: _________________________________________________________________________

<basis_specs>
===============================================================================
C                    Z=   6    Mass=  12.010        Charge= 0.17977+309
Lmxo=1 Lmxkb= 3    BasisType=split      Semic=F
L=0  Nsemic=0  Cnfigmx=2
          n=1  nzeta=2  polorb=0
            splnorm:   0.15000    
               vcte:    0.0000    
               rinn:    0.0000    
                rcs:    0.0000      0.0000    
            lambdas:    1.0000      1.0000    
L=1  Nsemic=0  Cnfigmx=2
          n=1  nzeta=2  polorb=1
            splnorm:   0.15000    
               vcte:    0.0000    
               rinn:    0.0000    
                rcs:    0.0000      0.0000    
            lambdas:    1.0000      1.0000    
-------------------------------------------------------------------------------
L=0  Nkbl=1  erefs: 0.17977+309
L=1  Nkbl=1  erefs: 0.17977+309
L=2  Nkbl=1  erefs: 0.17977+309
L=3  Nkbl=1  erefs: 0.17977+309
===============================================================================
</basis_specs>

atom: Called for C                     (Z =   6)

read_vps: Pseudopotential generation method:
read_vps: ATM3      Troullier-Martins                       
Total valence charge:    4.00000

read_vps: Pseudopotential includes a core correction:
read_vps: Pseudo-core for xc-correction

xc_check: Exchange-correlation functional:
xc_check: GGA Perdew, Burke & Ernzerhof 1996
V l=0 = -2*Zval/r beyond r=  1.5227
V l=1 = -2*Zval/r beyond r=  1.5227
V l=2 = -2*Zval/r beyond r=  1.5227
V l=3 = -2*Zval/r beyond r=  1.5038
All V_l potentials equal beyond r=  1.5227
This should be close to max(r_c) in ps generation
All pots = -2*Zval/r beyond r=  1.5227

VLOCAL1: 99.0% of the norm of Vloc inside     18.722 Ry
VLOCAL1: 99.9% of the norm of Vloc inside     42.668 Ry
atom: Maximum radius for 4*pi*r*r*local-pseudopot. charge    1.83678
atom: Maximum radius for r*vlocal+2*Zval:    1.58088
GHOST: No ghost state for L =  0
GHOST: No ghost state for L =  1
GHOST: No ghost state for L =  2
GHOST: No ghost state for L =  3

KBgen: Kleinman-Bylander projectors: 
   l= 0   rc=  1.704034   el= -1.009801   Ekb=  5.335044   kbcos=  0.316824
   l= 1   rc=  1.704034   el= -0.388707   Ekb= -3.785862   kbcos= -0.366464
   l= 2   rc=  1.791422   el=  0.001971   Ekb= -0.970471   kbcos= -0.009212
   l= 3   rc=  1.859892   el=  0.003065   Ekb= -0.399525   kbcos= -0.001223

KBgen: Total number of  Kleinman-Bylander projectors:   16
atom: -------------------------------------------------------------------------

atom: SANKEY-TYPE ORBITALS:
atom: Selected multiple-zeta basis: split     

SPLIT: Orbitals with angular momentum L= 0

SPLIT: Basis orbitals for state 2s

SPLIT: PAO cut-off radius determined from an
SPLIT: energy shift=  0.007350 Ry

   izeta = 1
                 lambda =    1.000000
                     rc =    4.632753
                 energy =   -1.002270
                kinetic =    0.855760
    potential(screened) =   -1.858031
       potential(ionic) =   -5.417575

   izeta = 2
                 rmatch =    3.431921
              splitnorm =    0.150000
                 energy =   -0.867111
                kinetic =    1.300804
    potential(screened) =   -2.167915
       potential(ionic) =   -5.962684

SPLIT: Orbitals with angular momentum L= 1

SPLIT: Basis orbitals for state 2p

SPLIT: PAO cut-off radius determined from an
SPLIT: energy shift=  0.007350 Ry

   izeta = 1
                 lambda =    1.000000
                     rc =    5.658549
                 energy =   -0.381140
                kinetic =    2.399701
    potential(screened) =   -2.780841
       potential(ionic) =   -6.206085

   izeta = 2
                 rmatch =    3.653288
              splitnorm =    0.150000
                 energy =   -0.249149
                kinetic =    3.542762
    potential(screened) =   -3.791911
       potential(ionic) =   -7.581078

POLgen: Perturbative polarization orbital with L=  2

POLgen: Polarization orbital for state 2p

   izeta = 1
                     rc =    5.658549
                 energy =    1.109913
                kinetic =    2.304789
    potential(screened) =   -1.194876
       potential(ionic) =   -4.013592
atom: Total number of Sankey-type orbitals: 13

atm_pop: Valence configuration (for local Pseudopot. screening):
 2s( 2.00)                                                            
 2p( 2.00)                                                            
Vna: chval, zval:    4.00000   4.00000

Vna:  Cut-off radius for the neutral-atom potential:   5.658549
comcore: Pseudo-core radius Rcore=  1.791422

atom: _________________________________________________________________________

prinput: Basis input ----------------------------------------------------------

PAO.BasisType split     

%block ChemicalSpeciesLabel
    1    5 B                       # Species index, atomic number, species label
    2    6 C                       # Species index, atomic number, species label
%endblock ChemicalSpeciesLabel

%block PAO.Basis                 # Define Basis set
B                     2                    # Species label, number of l-shells
 n=2   0   2                         # n, l, Nzeta 
   5.422      4.223   
   1.000      1.000   
 n=2   1   2 P   1                   # n, l, Nzeta, Polarization, NzetaPol
   6.790      4.609   
   1.000      1.000   
C                     2                    # Species label, number of l-shells
 n=2   0   2                         # n, l, Nzeta 
   4.633      3.432   
   1.000      1.000   
 n=2   1   2 P   1                   # n, l, Nzeta, Polarization, NzetaPol
   5.659      3.653   
   1.000      1.000   
%endblock PAO.Basis

prinput: ----------------------------------------------------------------------

coor:   Atomic-coordinates input format  =     Fractional

siesta: Atomic coordinates (Bohr) and species
siesta:     -0.02582   5.28395   0.00000  1        1
siesta:      2.30256   6.62836   0.00000  1        2
siesta:      2.30256   9.31683   0.00000  1        3
siesta:      4.63094  10.66124   0.00000  1        4
siesta:      4.63094  13.34970   0.00000  1        5
siesta:      6.95932  14.69411   0.00000  1        6
siesta:      6.95932  17.38257   0.00000  1        7
siesta:      9.28770  18.72698   0.00000  1        8
siesta:      9.28770  21.41544   0.00000  1        9
siesta:     11.61608  22.75985   0.00000  1       10
siesta:     -2.35420   6.62836   0.00000  1       11
siesta:     -2.35420   9.31683   0.00000  1       12
siesta:      4.63094  18.72698   0.00000  1       13
siesta:      4.63094  21.41544   0.00000  1       14
siesta:     -4.68258  10.66124   0.00000  1       15
siesta:     -4.68258  13.34970   0.00000  1       16
siesta:      2.30256  22.75985   0.00000  1       17
siesta:      2.30256  25.44831   0.00000  1       18
siesta:     -7.01096  14.69411   0.00000  1       19
siesta:     -7.01096  17.38257   0.00000  1       20
siesta:     -4.68258  18.72698   0.00000  1       21
siesta:     -4.68258  21.41544   0.00000  1       22
siesta:     -2.35420  22.75985   0.00000  1       23
siesta:     -2.35420  25.44831   0.00000  1       24
siesta:     -0.02582  26.79272   0.00000  1       25
siesta:     -0.02582   2.59549   0.00000  2       26
siesta:     -2.35420  38.89134   0.00000  2       27
siesta:     -2.35420  41.57980   0.00000  2       28
siesta:      2.30256  38.89134   0.00000  2       29
siesta:      2.30256  41.57980   0.00000  2       30
siesta:      4.63094  34.85847   0.00000  2       31
siesta:      4.63094  37.54693   0.00000  2       32
siesta:      6.95932  30.82560   0.00000  2       33
siesta:      6.95932  33.51406   0.00000  2       34
siesta:      9.28770  26.79272   0.00000  2       35
siesta:      9.28770  29.48119   0.00000  2       36
siesta:     -4.68258  34.85847   0.00000  2       37
siesta:     -4.68258  37.54693   0.00000  2       38
siesta:     11.61608  25.44831   0.00000  2       39
siesta:     -0.02582  10.66124   0.00000  2       40
siesta:     -0.02582  13.34970   0.00000  2       41
siesta:      2.30256  14.69411   0.00000  2       42
siesta:      2.30256  17.38257   0.00000  2       43
siesta:      6.95932  22.75985   0.00000  2       44
siesta:      6.95932  25.44831   0.00000  2       45
siesta:     -2.35420  14.69411   0.00000  2       46
siesta:     -2.35420  17.38257   0.00000  2       47
siesta:     -0.02582  18.72698   0.00000  2       48
siesta:     -0.02582  21.41544   0.00000  2       49
siesta:     -9.33934  18.72698   0.00000  2       50
siesta:     -9.33934  21.41544   0.00000  2       51
siesta:     -7.01096  22.75985   0.00000  2       52
siesta:     -7.01096  25.44831   0.00000  2       53
siesta:    -11.66772  22.75985   0.00000  2       54
siesta:    -11.66772  25.44831   0.00000  2       55
siesta:     -9.33934  26.79272   0.00000  2       56
siesta:     -9.33934  29.48119   0.00000  2       57
siesta:      4.63094  26.79272   0.00000  2       58
siesta:      4.63094  29.48119   0.00000  2       59
siesta:     -0.02582  29.48119   0.00000  2       60
siesta:     -4.68258  26.79272   0.00000  2       61
siesta:     -4.68258  29.48119   0.00000  2       62
siesta:      2.30256  30.82560   0.00000  2       63
siesta:      2.30256  33.51406   0.00000  2       64
siesta:     -2.35420  30.82560   0.00000  2       65
siesta:     -2.35420  33.51406   0.00000  2       66
siesta:     -7.01096  30.82560   0.00000  2       67
siesta:     -7.01096  33.51406   0.00000  2       68
siesta:     -0.02582  34.85847   0.00000  2       69
siesta:     -0.02582  37.54693   0.00000  2       70
siesta:     -0.02582  42.92421   0.00000  2       71
siesta:     -0.02582  45.61267   0.00000  2       72

siesta: System type = slab      

initatomlists: Number of atoms, orbitals, and projectors:     72   936  1152

siesta: ******************** Simulation parameters ****************************
siesta:
siesta: The following are some of the parameters of the simulation.
siesta: A complete list of the parameters used, including default values,
siesta: can be found in file out.fdf
siesta:
redata: Non-Collinear-spin run           =     F
redata: SpinPolarized (Up/Down) run      =     F
redata: Number of spin components        =     1
redata: Long output                      =     F
redata: Number of Atomic Species         =        2
redata: Charge density info will appear in .RHO file
redata: Write Mulliken Pop.              =     NO
redata: Mesh Cutoff                      =   200.0000  Ry
redata: Net charge of the system         =     0.0000 |e|
redata: Max. number of SCF Iter          =      500
redata: SCF convergence failure will abort job
redata: Performing Pulay mixing using    =    10 iterations
redata: Mix DM in first SCF step ?       =     F
redata: Write Pulay info on disk?        =     F
redata: Discard 1st Pulay DM after  kick =     F
redata: New DM Mixing Weight             =     0.0500
redata: New DM Occupancy tolerance       = 0.000000000001
redata: No kicks to SCF
redata: DM Mixing Weight for Kicks       =     0.5000
redata: DM Tolerance for SCF             =     0.000100
redata: Require Energy convergence for SCF =     F
redata: DM Energy tolerance for SCF      =     0.000100 eV
redata: Require Harris convergence for SCF =     F
redata: DM Harris energy tolerance for SCF =     0.000100 eV
redata: Using Saved Data (generic)   =     F
redata: Use continuation files for DM    =     T
redata: Neglect nonoverlap interactions  =     F
redata: Method of Calculation            =     Diagonalization
redata: Divide and Conquer               =     T
redata: Electronic Temperature           =     0.0019  Ry
redata: Fix the spin of the system       =     F
redata: Dynamics option                  =     Verlet MD run
redata: Initial MD time step             =        1
redata:   Final MD time step             =        1
redata: Length of MD time step           =     1.0000  fs
redata: Initial Temperature of MD run    =     0.0000  K
redata: Perform a MD quench              =     F
redata: ***********************************************************************
Total number of electrons:   263.000000
Total ionic charge:   263.000000

* ProcessorY, Blocksize:    2  24

k-point displ. along   1 input, could be:     0.50    0.00
k-point displ. along   2 input, could be:     0.50    0.00
 Kpoints in:          231 . Kpoints trimmed:          231

siesta: k-grid: Number of k-points =   231
siesta: k-grid: Cutoff (effective) =     5.000 Ang
siesta: k-grid: Supercell and displacements
siesta: k-grid:   21   0   0      0.500
siesta: k-grid:    0  21   0      0.500
siesta: k-grid:    0   0   1      0.000
Naive supercell factors:     2    2    2

superc: Internal auxiliary supercell:     2 x     2 x     2  =       8
superc: Number of atoms, orbitals, and projectors:    576   7488   9216

* Maximum dynamic memory allocated =     4 MB

siesta:                 ==============================
                            Begin MD step =      1
                        ==============================

superc: Internal auxiliary supercell:     2 x     2 x     2  =       8
superc: Number of atoms, orbitals, and projectors:    576   7488   9216

outcell: Unit cell vectors (Ang):
       12.804619    7.392750    0.000000
        0.000000   14.785500    0.000000
        0.000000    0.000000   10.000000

outcell: Cell vector modules (Ang)   :   14.785500   14.785500   10.000000
outcell: Cell angles (23,13,12) (deg):     90.0000     90.0000     60.0000
outcell: Cell volume (Ang**3)        :   1893.2269
New_DM. Step:     1
Initializing Density Matrix...

InitMesh: MESH =   120 x   120 x    90 =     1296000
InitMesh: Mesh cutoff (required, used) =   200.000   223.865 Ry

* Maximum dynamic memory allocated =   231 MB

stepf: Fermi-Dirac step function

siesta: Program's energy decomposition (eV):
siesta: Ebs     =     -5451.317316
siesta: Eions   =     15201.593291
siesta: Ena     =      4132.986262
siesta: Ekin    =      5059.728642
siesta: Enl     =       857.149691
siesta: DEna    =        -0.000006
siesta: DUscf   =         0.000000
siesta: DUext   =         0.000000
siesta: Exc     =     -4206.856482
siesta: eta*DQ  =         0.000000
siesta: Emadel  =         0.000000
siesta: Emeta   =         0.000000
siesta: Emolmec =         0.000000
siesta: Ekinion =         0.000000
siesta: Eharris =     -9145.161491
siesta: Etot    =     -9358.585185
siesta: FreeEng =     -9358.585185

siesta: iscf   Eharris(eV)      E_KS(eV)   FreeEng(eV)   dDmax  Ef(eV)
siesta:    1    -9145.1615    -9358.5852    -9358.5852  7.2764 -8.5658
timer: Routine,Calls,Time,% = IterSCF        1    4506.285  99.72
elaps: Routine,Calls,Wall,% = IterSCF        1     564.060  99.72
siesta:    2   -14863.6188    -8239.3692    -8239.4214 19.0570 -4.7549
siesta:    3    -9155.1030    -9186.5197    -9186.5531  2.7481 -6.2503
siesta:    4    -9099.3752    -9095.6256    -9095.6836  1.5351 -5.6216
siesta:    5    -9031.6760    -9015.6714    -9015.7193  1.4878 -4.9576
siesta:    6    -8991.6012    -8980.5772    -8980.6186  1.2947 -5.0535
siesta:    7    -8986.4734    -8968.9625    -8969.0119  1.2213 -5.0577
siesta:    8    -8979.9655    -8960.1544    -8960.1925  0.7643 -5.0867
siesta:    9    -8977.6834    -8954.4494    -8954.5119  0.5835 -5.1934
siesta:   10    -8977.5183    -8953.1210    -8953.1690  0.8201 -5.1511
siesta:   11    -8980.0471    -8944.9786    -8945.0366  0.5920 -5.1695
siesta:   12    -8977.5586    -8945.0959    -8945.1771  0.4030 -5.1365
siesta:   13    -8976.5537    -8945.5006    -8945.5685  0.4497 -5.1002
siesta:   14    -8976.0211    -8949.2376    -8949.2946  0.2248 -5.0892
siesta:   15    -8975.9561    -8953.5546    -8953.6127  0.2501 -5.1182
siesta:   16    -8975.6669    -8955.2237    -8955.2915  0.1953 -5.1300
siesta:   17    -8975.3067    -8963.8134    -8963.8776  0.2529 -5.1911
siesta:   18    -8975.1393    -8967.4073    -8967.4757  0.1229 -5.1828
siesta:   19    -8975.0865    -8971.4417    -8971.5045  0.0734 -5.1920
siesta:   20    -8975.0545    -8972.3674    -8972.4291  0.0702 -5.1836
siesta:   21    -8975.0485    -8972.7819    -8972.8487  0.0447 -5.1781
siesta:   22    -8975.0312    -8973.6616    -8973.7280  0.0402 -5.1791
siesta:   23    -8975.0134    -8975.4624    -8975.5292  0.0326 -5.1783
siesta:   24    -8975.0139    -8975.4724    -8975.5453  0.0303 -5.1773
siesta:   25    -8975.0103    -8975.4598    -8975.5278  0.0383 -5.1774
siesta:   26    -8975.0093    -8975.1334    -8975.2032  0.0335 -5.1739
siesta:   27    -8975.0094    -8975.0582    -8975.1279  0.0162 -5.1712
siesta:   28    -8975.0089    -8974.8500    -8974.9191  0.0086 -5.1690
siesta:   29    -8975.0086    -8974.8052    -8974.8742  0.0068 -5.1690
siesta:   30    -8975.0085    -8974.8856    -8974.9545  0.0074 -5.1706
siesta:   31    -8975.0085    -8975.0353    -8975.1041  0.0039 -5.1722
siesta:   32    -8975.0084    -8975.0652    -8975.1339  0.0020 -5.1724
siesta:   33    -8975.0084    -8975.0823    -8975.1510  0.0036 -5.1724
siesta:   34    -8975.0085    -8975.0751    -8975.1437  0.0011 -5.1722
siesta:   35    -8975.0085    -8975.0599    -8975.1285  0.0014 -5.1720
siesta:   36    -8975.0085    -8975.0449    -8975.1135  0.0007 -5.1718
siesta:   37    -8975.0084    -8975.0277    -8975.0962  0.0007 -5.1716
siesta:   38    -8975.0084    -8975.0223    -8975.0909  0.0004 -5.1716
siesta:   39    -8975.0084    -8975.0223    -8975.0909  0.0002 -5.1716
siesta:   40    -8975.0084    -8975.0170    -8975.0856  0.0002 -5.1716
siesta:   41    -8975.0084    -8975.0117    -8975.0804  0.0001 -5.1716

siesta: E_KS(eV) =            -8975.0079

siesta: E_KS - E_eggbox =     -8975.0079

siesta: Atomic forces (eV/Ang):
----------------------------------------
   Tot   -0.320702    0.043841    0.000000
----------------------------------------
   Max  571.088894
   Res  144.186793    sqrt( Sum f_i^2 / 3N )
----------------------------------------
   Max  571.088894    constrained

Stress-tensor-Voigt (kbar):     -754.07    -2649.77       -0.74       -3.74        0.00        0.00
(Free)E + p*V (eV/cell)    -7634.0754
Target enthalpy (eV/cell)    -8975.0765

siesta: Stress tensor (static) (eV/Ang**3):
        -0.470649   -0.002334    0.000000
        -0.002334   -1.653836    0.000000
         0.000000    0.000000   -0.000461

siesta: Pressure (static):       1134.85814758  kBar

siesta: Stress tensor (total) (eV/Ang**3):
        -0.470649   -0.002334    0.000000
        -0.002334   -1.653836    0.000000
         0.000000    0.000000   -0.000461

siesta: Pressure (total):       1134.85814758  kBar

siesta: Temp_ion =       0.000 K

* Maximum dynamic memory allocated =   248 MB
Computing bands...

siesta: Program's energy decomposition (eV):
siesta: Ebs     =     -4077.076902
siesta: Eions   =     15201.593291
siesta: Ena     =      4132.986262
siesta: Ekin    =      7894.499659
siesta: Enl     =      -757.954439
siesta: DEna    =      -772.696590
siesta: DUscf   =       103.993651
siesta: DUext   =         0.000000
siesta: Exc     =     -4374.243174
siesta: eta*DQ  =         0.000000
siesta: Emadel  =         0.000000
siesta: Emeta   =         0.000000
siesta: Emolmec =         0.000000
siesta: Ekinion =         0.000000
siesta: Eharris =     -8975.008405
siesta: Etot    =     -8975.007922
siesta: FreeEng =     -8975.076542

siesta: Final energy (eV):
siesta:  Band Struct. =   -4077.076902
siesta:       Kinetic =    7894.499659
siesta:       Hartree =   25625.332831
siesta:    Ext. field =       0.000000
siesta:   Exch.-corr. =   -4374.243174
siesta:  Ion-electron =  -58893.850838
siesta:       Ion-ion =   20773.253599
siesta:       Ekinion =       0.000000
siesta:         Total =   -8975.007922

siesta: Atomic forces (eV/Ang):
siesta:      1   -0.080408 -104.056043    0.000000
siesta:      2   -1.993393  395.261077    0.000000
siesta:      3    3.392888 -109.207488    0.000000
siesta:      4   19.484796  393.506919    0.000000
siesta:      5   17.000223   -1.410582    0.000000
siesta:      6    3.391801   -2.636974    0.000000
siesta:      7    3.146809   -2.499076    0.000000
siesta:      8    5.378357   -2.966289    0.000000
siesta:      9   -0.394944    1.068652    0.000000
siesta:     10    6.887298    3.417211    0.000000
siesta:     11    2.165573  395.155465    0.000000
siesta:     12   -3.815094 -108.784613    0.000000
siesta:     13   -6.088182   -2.850656    0.000000
siesta:     14    5.252691    3.716588    0.000000
siesta:     15  -19.135126  393.561003    0.000000
siesta:     16  -16.271895   -1.663556    0.000000
siesta:     17   -5.642619   -4.338873    0.000000
siesta:     18    4.974489    3.561087    0.000000
siesta:     19   -2.855990   -3.698737    0.000000
siesta:     20   -9.038473    0.031994    0.000000
siesta:     21    6.169472   -2.675825    0.000000
siesta:     22   -5.270376    3.104185    0.000000
siesta:     23    5.074275   -3.958451    0.000000
siesta:     24   -5.084136    3.403149    0.000000
siesta:     25    0.065935    3.182966    0.000000
siesta:     26    0.164659  554.892482    0.000000
siesta:     27   -9.184587  126.732594    0.000000
siesta:     28   -9.753625 -545.061651    0.000000
siesta:     29    9.051976  126.657182    0.000000
siesta:     30    9.964573 -545.488047    0.000000
siesta:     31   24.244494   -3.114999    0.000000
siesta:     32   31.775522 -402.213958    0.000000
siesta:     33    2.417834    0.466332    0.000000
siesta:     34   -2.420439    2.470514    0.000000
siesta:     35    2.861631    1.038284    0.000000
siesta:     36   -0.896754    0.766588    0.000000
siesta:     37  -24.106316   -3.002483    0.000000
siesta:     38  -31.764988 -402.560898    0.000000
siesta:     39    0.061393   -0.299142    0.000000
siesta:     40   -0.322148  547.511053    0.000000
siesta:     41   -0.175662 -131.093811    0.000000
siesta:     42   31.238862  551.314880    0.000000
siesta:     43   19.873208   -6.503258    0.000000
siesta:     44   -0.625810    3.397894    0.000000
siesta:     45   -0.326781   -0.395721    0.000000
siesta:     46  -31.460746  550.802360    0.000000
siesta:     47  -19.807559   -6.711229    0.000000
siesta:     48   -0.086265  567.236818    0.000000
siesta:     49    0.035348   -3.312272    0.000000
siesta:     50   -0.139266    2.156886    0.000000
siesta:     51   -4.091668   -1.992509    0.000000
siesta:     52   -1.524451    2.320977    0.000000
siesta:     53   -0.944938   -0.294317    0.000000
siesta:     54    0.522783    6.821791    0.000000
siesta:     55   -0.853863   -6.810241    0.000000
siesta:     56   -1.627541    2.111230    0.000000
siesta:     57    0.917017    0.463843    0.000000
siesta:     58    2.271511    1.614376    0.000000
siesta:     59   -1.290023   -1.754569    0.000000
siesta:     60   -0.077382 -571.088894    0.000000
siesta:     61   -2.199089    1.743581    0.000000
siesta:     62    1.263341   -1.666667    0.000000
siesta:     63   18.802985    3.555584    0.000000
siesta:     64   32.949241 -409.830374    0.000000
siesta:     65  -18.837752    3.361096    0.000000
siesta:     66  -33.120434 -409.803723    0.000000
siesta:     67   -2.424034    0.395117    0.000000
siesta:     68    2.217257    2.566514    0.000000
siesta:     69    0.120884  130.826307    0.000000
siesta:     70    0.244276 -562.942024    0.000000
siesta:     71   -0.138026  128.980416    0.000000
siesta:     72    0.166678 -552.443204    0.000000
siesta: ----------------------------------------
siesta:    Tot   -0.320702    0.043841    0.000000

siesta: Stress tensor (static) (eV/Ang**3):
siesta:    -0.470649   -0.002334    0.000000
siesta:    -0.002334   -1.653836    0.000000
siesta:     0.000000    0.000000   -0.000461

siesta: Cell volume =       1893.226884 Ang**3

siesta: Pressure (static):
siesta:                Solid            Molecule  Units
siesta:           0.00771446          0.11022156  Ry/Bohr**3
siesta:           0.70831509         10.12016839  eV/Ang**3
siesta:        1134.85814758      16214.47259242  kBar
(Free)E+ p_basis*V_orbitals  =       -8936.440090
(Free)Eharris+ p_basis*V_orbitals  =       -8936.436753

siesta: Electric dipole (a.u.)  =    0.000000    0.000000    0.000000
siesta: Electric dipole (Debye) =    0.000000    0.000000    0.000000

* Maximum dynamic memory allocated : Node    0 =   248 MB
* Maximum dynamic memory allocated : Node    1 =    87 MB
* Maximum dynamic memory allocated : Node    2 =    89 MB
* Maximum dynamic memory allocated : Node    3 =   233 MB
* Maximum dynamic memory allocated : Node    4 =   234 MB
* Maximum dynamic memory allocated : Node    5 =    85 MB
* Maximum dynamic memory allocated : Node    6 =    88 MB
* Maximum dynamic memory allocated : Node    7 =   216 MB

* Maximum memory occured during matrixMtoO                    

timer: CPU execution times:
timer:  Routine       Calls   Time/call    Tot.time        %
timer:  siesta            1  182872.363  182872.363   100.00
timer:  Setup             1       3.788       3.788     0.00
timer:  bands             3     269.105     807.314     0.44
timer:  writewave         1       0.041       0.041     0.00
timer:  KSV_init          1       0.008       0.008     0.00
timer:  IterMD            1  182055.577  182055.577    99.55
timer:  hsparse           1       0.394       0.394     0.00
timer:  overlap           1       7.795       7.795     0.00
timer:  IterSCF          41    4434.505  181814.714    99.42
timer:  kinefsm           2       4.050       8.099     0.00
timer:  nlefsm            2      22.104      44.208     0.02
timer:  DHSCF            42     130.876    5496.795     3.01
timer:  DHSCF1            1       1.007       1.007     0.00
timer:  DHSCF2            1      45.915      45.915     0.03
timer:  REORD           338       0.010       3.393     0.00
timer:  POISON           43       2.244      96.499     0.05
timer:  DHSCF3           42     128.631    5402.521     2.95
timer:  rhoofd           42      26.957    1132.178     0.62
timer:  cellXC           42       3.460     145.320     0.08
timer:  vmat             42      64.944    2727.642     1.49
timer:  MolMec            2       0.000       0.000     0.00
timer:  diagon           41    4301.287  176352.777    96.43
timer:  c-eigval       9592       6.664   63923.653    34.96
timer:  c-buildHS      9592       0.124    1190.134     0.65
timer:  cdiag         19063       6.871  130979.450    71.62
timer:  cdiag1        19063       0.427    8143.115     4.45
timer:  cdiag2        19063       1.904   36305.112    19.85
timer:  cdiag3        19063       3.931   74932.777    40.98
timer:  cdiag4        19063       0.223    4247.794     2.32
timer:  c-eigvec       9471       7.278   68929.509    37.69
timer:  c-buildD       9471       4.673   44254.807    24.20
timer:  DHSCF4            1      45.096      45.096     0.02
timer:  dfscf             1      42.381      42.381     0.02
timer:  overfsm           1       0.498       0.498     0.00
timer:  optical           1       4.988       4.988     0.00
  

elaps: ELAPSED times:
elaps:  Routine       Calls   Time/call    Tot.time        %
elaps:  siesta            1   22886.532   22886.532   100.00
elaps:  Setup             1       0.491       0.491     0.00
elaps:  bands             3      33.690     101.071     0.44
elaps:  writewave         1       0.005       0.005     0.00
elaps:  KSV_init          1       0.001       0.001     0.00
elaps:  IterMD            1   22784.313   22784.313    99.55
elaps:  hsparse           1       0.050       0.050     0.00
elaps:  overlap           1       0.982       0.982     0.00
elaps:  IterSCF          41     554.983   22754.318    99.42
elaps:  kinefsm           2       0.510       1.019     0.00
elaps:  nlefsm            2       2.815       5.630     0.02
elaps:  DHSCF            42      16.503     693.111     3.03
elaps:  DHSCF1            1       0.129       0.129     0.00
elaps:  DHSCF2            1       5.744       5.744     0.03
elaps:  REORD           338       0.001       0.455     0.00
elaps:  POISON           43       0.281      12.071     0.05
elaps:  DHSCF3           42      16.092     675.869     2.95
elaps:  rhoofd           42       7.049     296.054     1.29
elaps:  cellXC           42       0.432      18.145     0.08
elaps:  vmat             42       8.124     341.220     1.49
elaps:  MolMec            2       0.000       0.000     0.00
elaps:  diagon           41     538.334   22071.703    96.44
elaps:  c-eigval       9592       0.834    7998.063    34.95
elaps:  c-buildHS      9592       0.017     163.268     0.71
elaps:  cdiag         19063       0.844   16096.154    70.33
elaps:  cdiag1        19063       0.053    1007.705     4.40
elaps:  cdiag2        19063       0.238    4542.760    19.85
elaps:  cdiag3        19063       0.492    9388.436    41.02
elaps:  cdiag4        19063       0.028     528.987     2.31
elaps:  c-eigvec       9471       0.884    8370.763    36.58
elaps:  c-buildD       9471       0.612    5795.515    25.32
elaps:  DHSCF4            1      11.067      11.067     0.05
elaps:  dfscf             1      10.530      10.530     0.05
elaps:  overfsm           1       0.066       0.066     0.00
elaps:  optical           1       0.001       0.001     0.00
  
>> End of run:  22-APR-2016   4:21:33
