Siesta Version:                                        siesta-3.2-pl-3
Architecture  : x86_64-unknown-linux-gnu--unknown
Compiler flags: mpiifort -g -O2 -fPIC -xSSE4.1 -fp-model source -shared-intel 
PARALLEL version

* Running on   12 nodes in parallel
>> Start of run:   2-MAY-2016   0:29:32

                           ***********************       
                           *  WELCOME TO SIESTA  *       
                           ***********************       

reinit: Reading from standard input
************************** Dump of input data file ****************************
#(1) General system descriptors
SystemName            GRP_doping    # Descriptive name of the system
SystemLabel           GRP_doping    # Short name for naming files
%include STRUCT.fdf
%include KPT.fdf
%include BASIS.fdf
#%include TS.fdf # for transiesta calculation
#(4) DFT, Grid, SCF
XC.functional         GGA           # LDA or GGA (default = LDA)
XC.authors            PBE           # CA (Ceperley-Aldr) = PZ
                                    #    (Perdew-Zunger) - LDA - Default
                                    # PW92 (Perdew-Wang-92) - LDA
                                    # PBE (Perdew-Burke-Ernzerhof) - GGA
MeshCutoff            200.000000    Ry      # Default: 50.0 Ry ~ 0.444 Bohr
                                    #         100.0 Ry ~ 0.314 Bohr
MaxSCFIterations      500           # Default: 50
DM.MixingWeight       0.05          # Default: 0.25
DM.NumberPulay        10            # Default: 0
DM.PulayOnFile        F             # SystemLabel.P1, SystemLabel.P2
DM.Tolerance          1.d-4         # Default: 1.d-4
DM.UseSaveDM          .true.        # because of the bug
SCFMustConverge       .true.
NeglNonOverlapInt     F             # Default: F
#(5) Eigenvalue problem: order-N or diagonalization
SolutionMethod        Diagon        # or Transiesta
ElectronicTemperature 300.0 K       # Default: 300.0 K
#(6) Molecular dynamics and relaxations
#MD.TypeOfRun          CG            # Type of dynamics:
#MD.VariableCell       F
#MD.NumCGsteps         0           # 0 for single-point / 100 for gopt
#MD.MaxCGDispl         0.2 Bohr      # Default: 0.2 Bohr
#MD.MaxForceTol        0.02 eV/Ang   # Default: 0.04 eV/Ang
#MD.MaxStressTol       1.0 GPa       # Default: 1.0 GPa
# Geometry Constraints
#%block GeometryConstraints
#	position from 1 to 44
#%endblock GeometryConstraints
BandLinesScale   pi/a
%block BandLines
 1   0.00000000  0.00000000  0.00000000
50   0.00000000  0.07809418  0.00000000
50   0.04509075  0.07809242  0.00000000
20   0.00000000  0.00000000  0.00000000
%endblock BandLines
************************** End of input data file *****************************

reinit: -----------------------------------------------------------------------
reinit: System Name: GRP_doping
reinit: -----------------------------------------------------------------------
reinit: System Label: GRP_doping                                                  
reinit: -----------------------------------------------------------------------

initatom: Reading input for the pseudopotentials and atomic orbitals ----------
 Species number:            1  Label: B Atomic number:           5
 Species number:            2  Label: C Atomic number:           6
Ground state valence configuration:   2s02  2p01
Reading pseudopotential information in formatted form from B.psf

Valence configuration for pseudopotential generation:
2s( 2.00) rc: 1.74
2p( 1.00) rc: 1.74
3d( 0.00) rc: 1.74
4f( 0.00) rc: 1.74
Ground state valence configuration:   2s02  2p02
Reading pseudopotential information in formatted form from C.psf

Valence configuration for pseudopotential generation:
2s( 2.00) rc: 1.54
2p( 2.00) rc: 1.54
3d( 0.00) rc: 1.54
4f( 0.00) rc: 1.54
For B, standard SIESTA heuristics set lmxkb to 3
 (one more than the basis l, including polarization orbitals).
Use PS.lmax or PS.KBprojectors blocks to override.
For C, standard SIESTA heuristics set lmxkb to 3
 (one more than the basis l, including polarization orbitals).
Use PS.lmax or PS.KBprojectors blocks to override.

<basis_specs>
===============================================================================
B                    Z=   5    Mass=  10.810        Charge= 0.17977+309
Lmxo=1 Lmxkb= 3    BasisType=split      Semic=F
L=0  Nsemic=0  Cnfigmx=2
          n=1  nzeta=2  polorb=0
            splnorm:   0.15000    
               vcte:    0.0000    
               rinn:    0.0000    
                rcs:    0.0000      0.0000    
            lambdas:    1.0000      1.0000    
L=1  Nsemic=0  Cnfigmx=2
          n=1  nzeta=2  polorb=1
            splnorm:   0.15000    
               vcte:    0.0000    
               rinn:    0.0000    
                rcs:    0.0000      0.0000    
            lambdas:    1.0000      1.0000    
-------------------------------------------------------------------------------
L=0  Nkbl=1  erefs: 0.17977+309
L=1  Nkbl=1  erefs: 0.17977+309
L=2  Nkbl=1  erefs: 0.17977+309
L=3  Nkbl=1  erefs: 0.17977+309
===============================================================================
</basis_specs>

atom: Called for B                     (Z =   5)

read_vps: Pseudopotential generation method:
read_vps: ATM3      Troullier-Martins                       
Total valence charge:    3.00000

read_vps: Pseudopotential includes a core correction:
read_vps: Pseudo-core for xc-correction

xc_check: Exchange-correlation functional:
xc_check: GGA Perdew, Burke & Ernzerhof 1996
V l=0 = -2*Zval/r beyond r=  1.7165
V l=1 = -2*Zval/r beyond r=  1.7165
V l=2 = -2*Zval/r beyond r=  1.7165
V l=3 = -2*Zval/r beyond r=  1.6951
All V_l potentials equal beyond r=  1.7165
This should be close to max(r_c) in ps generation
All pots = -2*Zval/r beyond r=  1.7165

VLOCAL1: 99.0% of the norm of Vloc inside     14.733 Ry
VLOCAL1: 99.9% of the norm of Vloc inside     33.577 Ry
atom: Maximum radius for 4*pi*r*r*local-pseudopot. charge    2.04484
atom: Maximum radius for r*vlocal+2*Zval:    1.75994
GHOST: No ghost state for L =  0
GHOST: No ghost state for L =  1
GHOST: No ghost state for L =  2
GHOST: No ghost state for L =  3

KBgen: Kleinman-Bylander projectors: 
   l= 0   rc=  1.897051   el= -0.693730   Ekb=  4.595746   kbcos=  0.286105
   l= 1   rc=  1.920920   el= -0.265236   Ekb= -2.350715   kbcos= -0.315747
   l= 2   rc=  2.044840   el=  0.002055   Ekb= -0.690767   kbcos= -0.013822
   l= 3   rc=  2.149707   el=  0.003188   Ekb= -0.315358   kbcos= -0.002055

KBgen: Total number of  Kleinman-Bylander projectors:   16
atom: -------------------------------------------------------------------------

atom: SANKEY-TYPE ORBITALS:
atom: Selected multiple-zeta basis: split     

SPLIT: Orbitals with angular momentum L= 0

SPLIT: Basis orbitals for state 2s

SPLIT: PAO cut-off radius determined from an
SPLIT: energy shift=  0.007350 Ry

   izeta = 1
                 lambda =    1.000000
                     rc =    5.422032
                 energy =   -0.686029
                kinetic =    0.576707
    potential(screened) =   -1.262736
       potential(ionic) =   -3.271094

   izeta = 2
                 rmatch =    4.222573
              splitnorm =    0.150000
                 energy =   -0.602132
                kinetic =    0.858975
    potential(screened) =   -1.461107
       potential(ionic) =   -3.582536

SPLIT: Orbitals with angular momentum L= 1

SPLIT: Basis orbitals for state 2p

SPLIT: PAO cut-off radius determined from an
SPLIT: energy shift=  0.007350 Ry

   izeta = 1
                 lambda =    1.000000
                     rc =    6.790259
                 energy =   -0.258578
                kinetic =    1.481412
    potential(screened) =   -1.739989
       potential(ionic) =   -3.657461

   izeta = 2
                 rmatch =    4.608740
              splitnorm =    0.150000
                 energy =   -0.173757
                kinetic =    2.186690
    potential(screened) =   -2.360447
       potential(ionic) =   -4.464260

POLgen: Perturbative polarization orbital with L=  2

POLgen: Polarization orbital for state 2p

   izeta = 1
                     rc =    6.790259
                 energy =    0.684082
                kinetic =    1.471481
    potential(screened) =   -0.787399
       potential(ionic) =   -2.406985
atom: Total number of Sankey-type orbitals: 13

atm_pop: Valence configuration (for local Pseudopot. screening):
 2s( 2.00)                                                            
 2p( 1.00)                                                            
Vna: chval, zval:    3.00000   3.00000

Vna:  Cut-off radius for the neutral-atom potential:   6.790259
comcore: Pseudo-core radius Rcore=  2.122997

atom: _________________________________________________________________________

<basis_specs>
===============================================================================
C                    Z=   6    Mass=  12.010        Charge= 0.17977+309
Lmxo=1 Lmxkb= 3    BasisType=split      Semic=F
L=0  Nsemic=0  Cnfigmx=2
          n=1  nzeta=2  polorb=0
            splnorm:   0.15000    
               vcte:    0.0000    
               rinn:    0.0000    
                rcs:    0.0000      0.0000    
            lambdas:    1.0000      1.0000    
L=1  Nsemic=0  Cnfigmx=2
          n=1  nzeta=2  polorb=1
            splnorm:   0.15000    
               vcte:    0.0000    
               rinn:    0.0000    
                rcs:    0.0000      0.0000    
            lambdas:    1.0000      1.0000    
-------------------------------------------------------------------------------
L=0  Nkbl=1  erefs: 0.17977+309
L=1  Nkbl=1  erefs: 0.17977+309
L=2  Nkbl=1  erefs: 0.17977+309
L=3  Nkbl=1  erefs: 0.17977+309
===============================================================================
</basis_specs>

atom: Called for C                     (Z =   6)

read_vps: Pseudopotential generation method:
read_vps: ATM3      Troullier-Martins                       
Total valence charge:    4.00000

read_vps: Pseudopotential includes a core correction:
read_vps: Pseudo-core for xc-correction

xc_check: Exchange-correlation functional:
xc_check: GGA Perdew, Burke & Ernzerhof 1996
V l=0 = -2*Zval/r beyond r=  1.5227
V l=1 = -2*Zval/r beyond r=  1.5227
V l=2 = -2*Zval/r beyond r=  1.5227
V l=3 = -2*Zval/r beyond r=  1.5038
All V_l potentials equal beyond r=  1.5227
This should be close to max(r_c) in ps generation
All pots = -2*Zval/r beyond r=  1.5227

VLOCAL1: 99.0% of the norm of Vloc inside     18.722 Ry
VLOCAL1: 99.9% of the norm of Vloc inside     42.668 Ry
atom: Maximum radius for 4*pi*r*r*local-pseudopot. charge    1.83678
atom: Maximum radius for r*vlocal+2*Zval:    1.58088
GHOST: No ghost state for L =  0
GHOST: No ghost state for L =  1
GHOST: No ghost state for L =  2
GHOST: No ghost state for L =  3

KBgen: Kleinman-Bylander projectors: 
   l= 0   rc=  1.704034   el= -1.009801   Ekb=  5.335044   kbcos=  0.316824
   l= 1   rc=  1.704034   el= -0.388707   Ekb= -3.785862   kbcos= -0.366464
   l= 2   rc=  1.791422   el=  0.001971   Ekb= -0.970471   kbcos= -0.009212
   l= 3   rc=  1.859892   el=  0.003065   Ekb= -0.399525   kbcos= -0.001223

KBgen: Total number of  Kleinman-Bylander projectors:   16
atom: -------------------------------------------------------------------------

atom: SANKEY-TYPE ORBITALS:
atom: Selected multiple-zeta basis: split     

SPLIT: Orbitals with angular momentum L= 0

SPLIT: Basis orbitals for state 2s

SPLIT: PAO cut-off radius determined from an
SPLIT: energy shift=  0.007350 Ry

   izeta = 1
                 lambda =    1.000000
                     rc =    4.632753
                 energy =   -1.002270
                kinetic =    0.855760
    potential(screened) =   -1.858031
       potential(ionic) =   -5.417575

   izeta = 2
                 rmatch =    3.431921
              splitnorm =    0.150000
                 energy =   -0.867111
                kinetic =    1.300804
    potential(screened) =   -2.167915
       potential(ionic) =   -5.962684

SPLIT: Orbitals with angular momentum L= 1

SPLIT: Basis orbitals for state 2p

SPLIT: PAO cut-off radius determined from an
SPLIT: energy shift=  0.007350 Ry

   izeta = 1
                 lambda =    1.000000
                     rc =    5.658549
                 energy =   -0.381140
                kinetic =    2.399701
    potential(screened) =   -2.780841
       potential(ionic) =   -6.206085

   izeta = 2
                 rmatch =    3.653288
              splitnorm =    0.150000
                 energy =   -0.249149
                kinetic =    3.542762
    potential(screened) =   -3.791911
       potential(ionic) =   -7.581078

POLgen: Perturbative polarization orbital with L=  2

POLgen: Polarization orbital for state 2p

   izeta = 1
                     rc =    5.658549
                 energy =    1.109913
                kinetic =    2.304789
    potential(screened) =   -1.194876
       potential(ionic) =   -4.013592
atom: Total number of Sankey-type orbitals: 13

atm_pop: Valence configuration (for local Pseudopot. screening):
 2s( 2.00)                                                            
 2p( 2.00)                                                            
Vna: chval, zval:    4.00000   4.00000

Vna:  Cut-off radius for the neutral-atom potential:   5.658549
comcore: Pseudo-core radius Rcore=  1.791422

atom: _________________________________________________________________________

prinput: Basis input ----------------------------------------------------------

PAO.BasisType split     

%block ChemicalSpeciesLabel
    1    5 B                       # Species index, atomic number, species label
    2    6 C                       # Species index, atomic number, species label
%endblock ChemicalSpeciesLabel

%block PAO.Basis                 # Define Basis set
B                     2                    # Species label, number of l-shells
 n=2   0   2                         # n, l, Nzeta 
   5.422      4.223   
   1.000      1.000   
 n=2   1   2 P   1                   # n, l, Nzeta, Polarization, NzetaPol
   6.790      4.609   
   1.000      1.000   
C                     2                    # Species label, number of l-shells
 n=2   0   2                         # n, l, Nzeta 
   4.633      3.432   
   1.000      1.000   
 n=2   1   2 P   1                   # n, l, Nzeta, Polarization, NzetaPol
   5.659      3.653   
   1.000      1.000   
%endblock PAO.Basis

prinput: ----------------------------------------------------------------------

coor:   Atomic-coordinates input format  =     Fractional

siesta: Atomic coordinates (Bohr) and species
siesta:      2.30256  17.38257   0.00000  1        1
siesta:      6.95932  25.44831   0.00000  1        2
siesta:     -2.35420  17.38257   0.00000  1        3
siesta:     -0.02582  18.72698   0.00000  1        4
siesta:     -0.02582  21.41544   0.00000  1        5
siesta:      2.30256  22.75985   0.00000  1        6
siesta:      2.30256  25.44831   0.00000  1        7
siesta:     -4.68258  18.72698   0.00000  1        8
siesta:     -4.68258  21.41544   0.00000  1        9
siesta:     -2.35420  22.75985   0.00000  1       10
siesta:     -2.35420  25.44831   0.00000  1       11
siesta:      4.63094  26.79272   0.00000  1       12
siesta:      4.63094  29.48119   0.00000  1       13
siesta:     -0.02582  26.79272   0.00000  1       14
siesta:     -0.02582  29.48119   0.00000  1       15
siesta:      2.30256  30.82560   0.00000  1       16
siesta:     -0.02582   2.59549   0.00000  2       17
siesta:     -0.02582   5.28395   0.00000  2       18
siesta:     -2.35420  38.89134   0.00000  2       19
siesta:     -2.35420  41.57980   0.00000  2       20
siesta:      2.30256  38.89134   0.00000  2       21
siesta:      2.30256  41.57980   0.00000  2       22
siesta:      4.63094  34.85847   0.00000  2       23
siesta:      4.63094  37.54693   0.00000  2       24
siesta:      6.95932  30.82560   0.00000  2       25
siesta:      6.95932  33.51406   0.00000  2       26
siesta:      9.28770  26.79272   0.00000  2       27
siesta:      9.28770  29.48119   0.00000  2       28
siesta:     -4.68258  34.85847   0.00000  2       29
siesta:     -4.68258  37.54693   0.00000  2       30
siesta:      2.30256   6.62836   0.00000  2       31
siesta:      2.30256   9.31683   0.00000  2       32
siesta:      4.63094  10.66124   0.00000  2       33
siesta:      4.63094  13.34970   0.00000  2       34
siesta:      6.95932  14.69411   0.00000  2       35
siesta:      6.95932  17.38257   0.00000  2       36
siesta:      9.28770  18.72698   0.00000  2       37
siesta:      9.28770  21.41544   0.00000  2       38
siesta:     11.61608  22.75985   0.00000  2       39
siesta:     11.61608  25.44831   0.00000  2       40
siesta:     -2.35420   6.62836   0.00000  2       41
siesta:     -2.35420   9.31683   0.00000  2       42
siesta:     -0.02582  10.66124   0.00000  2       43
siesta:     -0.02582  13.34970   0.00000  2       44
siesta:      2.30256  14.69411   0.00000  2       45
siesta:      4.63094  18.72698   0.00000  2       46
siesta:      4.63094  21.41544   0.00000  2       47
siesta:      6.95932  22.75985   0.00000  2       48
siesta:     -4.68258  10.66124   0.00000  2       49
siesta:     -4.68258  13.34970   0.00000  2       50
siesta:     -2.35420  14.69411   0.00000  2       51
siesta:     -7.01096  14.69411   0.00000  2       52
siesta:     -7.01096  17.38257   0.00000  2       53
siesta:     -9.33934  18.72698   0.00000  2       54
siesta:     -9.33934  21.41544   0.00000  2       55
siesta:     -7.01096  22.75985   0.00000  2       56
siesta:     -7.01096  25.44831   0.00000  2       57
siesta:    -11.66772  22.75985   0.00000  2       58
siesta:    -11.66772  25.44831   0.00000  2       59
siesta:     -9.33934  26.79272   0.00000  2       60
siesta:     -9.33934  29.48119   0.00000  2       61
siesta:     -4.68258  26.79272   0.00000  2       62
siesta:     -4.68258  29.48119   0.00000  2       63
siesta:      2.30256  33.51406   0.00000  2       64
siesta:     -2.35420  30.82560   0.00000  2       65
siesta:     -2.35420  33.51406   0.00000  2       66
siesta:     -7.01096  30.82560   0.00000  2       67
siesta:     -7.01096  33.51406   0.00000  2       68
siesta:     -0.02582  34.85847   0.00000  2       69
siesta:     -0.02582  37.54693   0.00000  2       70
siesta:     -0.02582  42.92421   0.00000  2       71
siesta:     -0.02582  45.61267   0.00000  2       72

siesta: System type = slab      

initatomlists: Number of atoms, orbitals, and projectors:     72   936  1152

siesta: ******************** Simulation parameters ****************************
siesta:
siesta: The following are some of the parameters of the simulation.
siesta: A complete list of the parameters used, including default values,
siesta: can be found in file out.fdf
siesta:
redata: Non-Collinear-spin run           =     F
redata: SpinPolarized (Up/Down) run      =     F
redata: Number of spin components        =     1
redata: Long output                      =     F
redata: Number of Atomic Species         =        2
redata: Charge density info will appear in .RHO file
redata: Write Mulliken Pop.              =     NO
redata: Mesh Cutoff                      =   200.0000  Ry
redata: Net charge of the system         =     0.0000 |e|
redata: Max. number of SCF Iter          =      500
redata: SCF convergence failure will abort job
redata: Performing Pulay mixing using    =    10 iterations
redata: Mix DM in first SCF step ?       =     F
redata: Write Pulay info on disk?        =     F
redata: Discard 1st Pulay DM after  kick =     F
redata: New DM Mixing Weight             =     0.0500
redata: New DM Occupancy tolerance       = 0.000000000001
redata: No kicks to SCF
redata: DM Mixing Weight for Kicks       =     0.5000
redata: DM Tolerance for SCF             =     0.000100
redata: Require Energy convergence for SCF =     F
redata: DM Energy tolerance for SCF      =     0.000100 eV
redata: Require Harris convergence for SCF =     F
redata: DM Harris energy tolerance for SCF =     0.000100 eV
redata: Using Saved Data (generic)   =     F
redata: Use continuation files for DM    =     T
redata: Neglect nonoverlap interactions  =     F
redata: Method of Calculation            =     Diagonalization
redata: Divide and Conquer               =     T
redata: Electronic Temperature           =     0.0019  Ry
redata: Fix the spin of the system       =     F
redata: Dynamics option                  =     Verlet MD run
redata: Initial MD time step             =        1
redata:   Final MD time step             =        1
redata: Length of MD time step           =     1.0000  fs
redata: Initial Temperature of MD run    =     0.0000  K
redata: Perform a MD quench              =     F
redata: ***********************************************************************
Total number of electrons:   272.000000
Total ionic charge:   272.000000

* ProcessorY, Blocksize:    3  24

k-point displ. along   1 input, could be:     0.50    0.00
k-point displ. along   2 input, could be:     0.50    0.00
 Kpoints in:          231 . Kpoints trimmed:          231

siesta: k-grid: Number of k-points =   231
siesta: k-grid: Cutoff (effective) =     5.000 Ang
siesta: k-grid: Supercell and displacements
siesta: k-grid:   21   0   0      0.500
siesta: k-grid:    0  21   0      0.500
siesta: k-grid:    0   0   1      0.000
Naive supercell factors:     2    2    2

superc: Internal auxiliary supercell:     2 x     2 x     2  =       8
superc: Number of atoms, orbitals, and projectors:    576   7488   9216

* Maximum dynamic memory allocated =     4 MB

siesta:                 ==============================
                            Begin MD step =      1
                        ==============================

superc: Internal auxiliary supercell:     2 x     2 x     2  =       8
superc: Number of atoms, orbitals, and projectors:    576   7488   9216

outcell: Unit cell vectors (Ang):
       12.804619    7.392750    0.000000
        0.000000   14.785500    0.000000
        0.000000    0.000000   10.000000

outcell: Cell vector modules (Ang)   :   14.785500   14.785500   10.000000
outcell: Cell angles (23,13,12) (deg):     90.0000     90.0000     60.0000
outcell: Cell volume (Ang**3)        :   1893.2269
New_DM. Step:     1
Initializing Density Matrix...

InitMesh: MESH =   120 x   120 x    90 =     1296000
InitMesh: Mesh cutoff (required, used) =   200.000   223.865 Ry

* Maximum dynamic memory allocated =   153 MB

stepf: Fermi-Dirac step function

siesta: Program's energy decomposition (eV):
siesta: Ebs     =     -5618.947732
siesta: Eions   =     16354.103692
siesta: Ena     =      4334.210636
siesta: Ekin    =      5534.369168
siesta: Enl     =       767.816925
siesta: DEna    =        -0.000010
siesta: DUscf   =         0.000000
siesta: DUext   =         0.000000
siesta: Exc     =     -4198.603155
siesta: eta*DQ  =         0.000000
siesta: Emadel  =         0.000000
siesta: Emeta   =         0.000000
siesta: Emolmec =         0.000000
siesta: Ekinion =         0.000000
siesta: Eharris =     -9626.977603
siesta: Etot    =     -9916.310128
siesta: FreeEng =     -9916.310128

siesta: iscf   Eharris(eV)      E_KS(eV)   FreeEng(eV)   dDmax  Ef(eV)
siesta:    1    -9626.9776    -9916.3101    -9916.3101  6.6450 -8.2266
timer: Routine,Calls,Time,% = IterSCF        1    5337.619  99.75
elaps: Routine,Calls,Wall,% = IterSCF        1     465.329  99.77
siesta:    2   -14558.9200    -8877.6356    -8877.6868 18.9161 -2.8729
siesta:    3    -9563.8173    -9787.0401    -9787.0431  3.8041 -6.8148
siesta:    4    -9535.4793    -9636.6672    -9636.6689  1.5320 -5.7922
siesta:    5    -9493.3370    -9528.9083    -9528.9375  0.8118 -5.4035
siesta:    6    -9481.0280    -9507.0127    -9507.0552  0.8084 -5.4010
siesta:    7    -9477.4326    -9502.1129    -9502.1644  0.7952 -5.3702
siesta:    8    -9471.1324    -9475.4427    -9475.4922  0.6496 -5.2353
siesta:    9    -9470.9163    -9468.8608    -9468.9136  0.5950 -5.1960
siesta:   10    -9469.7785    -9457.8514    -9457.9164  0.3961 -5.0782
siesta:   11    -9469.5578    -9448.4346    -9448.4965  0.2105 -5.0407
siesta:   12    -9469.8749    -9443.3124    -9443.3637  0.1733 -4.9487
siesta:   13    -9469.5112    -9443.1369    -9443.1948  0.1650 -4.9549
siesta:   14    -9468.8415    -9449.6369    -9449.6979  0.1335 -5.0251
siesta:   15    -9468.7329    -9452.5556    -9452.6189  0.0855 -5.0521
siesta:   16    -9468.5950    -9456.8952    -9456.9568  0.0535 -5.0876
siesta:   17    -9468.5636    -9460.2860    -9460.3496  0.0398 -5.0918
siesta:   18    -9468.5507    -9461.9018    -9461.9616  0.0443 -5.0933
siesta:   19    -9468.5455    -9463.6193    -9463.6804  0.0234 -5.0961
siesta:   20    -9468.5409    -9465.7205    -9465.7798  0.0163 -5.1015
siesta:   21    -9468.5359    -9465.4217    -9465.4818  0.0129 -5.0969
siesta:   22    -9468.5345    -9467.8306    -9467.8907  0.0075 -5.1026
siesta:   23    -9468.5336    -9468.0802    -9468.1406  0.0064 -5.1020
siesta:   24    -9468.5327    -9468.2188    -9468.2788  0.0041 -5.0989
siesta:   25    -9468.5325    -9468.3868    -9468.4469  0.0035 -5.0976
siesta:   26    -9468.5323    -9468.5092    -9468.5693  0.0019 -5.0976
siesta:   27    -9468.5323    -9468.4982    -9468.5583  0.0009 -5.0972
siesta:   28    -9468.5323    -9468.4698    -9468.5299  0.0010 -5.0970
siesta:   29    -9468.5323    -9468.5043    -9468.5644  0.0005 -5.0974
siesta:   30    -9468.5323    -9468.4927    -9468.5528  0.0003 -5.0974
siesta:   31    -9468.5323    -9468.5160    -9468.5761  0.0002 -5.0975
siesta:   32    -9468.5323    -9468.5280    -9468.5881  0.0002 -5.0975
siesta:   33    -9468.5323    -9468.5256    -9468.5857  0.0001 -5.0975

siesta: E_KS(eV) =            -9468.5238

siesta: E_KS - E_eggbox =     -9468.5238

siesta: Atomic forces (eV/Ang):
----------------------------------------
   Tot   -0.067090   -0.096945    0.000000
----------------------------------------
   Max  557.708688
   Res  153.091583    sqrt( Sum f_i^2 / 3N )
----------------------------------------
   Max  557.708688    constrained

Stress-tensor-Voigt (kbar):     -816.49    -2774.80       -0.60       -2.62        0.00        0.00
(Free)E + p*V (eV/cell)    -8053.8006
Target enthalpy (eV/cell)    -9468.5839

siesta: Stress tensor (static) (eV/Ang**3):
        -0.509610   -0.001634    0.000000
        -0.001633   -1.731876    0.000000
         0.000000    0.000000   -0.000374

siesta: Pressure (static):       1197.29825399  kBar

siesta: Stress tensor (total) (eV/Ang**3):
        -0.509610   -0.001634    0.000000
        -0.001633   -1.731876    0.000000
         0.000000    0.000000   -0.000374

siesta: Pressure (total):       1197.29825399  kBar

siesta: Temp_ion =       0.000 K

* Maximum dynamic memory allocated =   165 MB
Computing bands...

siesta: Program's energy decomposition (eV):
siesta: Ebs     =     -4248.936368
siesta: Eions   =     16354.103692
siesta: Ena     =      4334.210636
siesta: Ekin    =      8454.059544
siesta: Enl     =      -838.423775
siesta: DEna    =      -800.115922
siesta: DUscf   =       106.934612
siesta: DUext   =         0.000000
siesta: Exc     =     -4371.085206
siesta: eta*DQ  =         0.000000
siesta: Emadel  =         0.000000
siesta: Emeta   =         0.000000
siesta: Emolmec =         0.000000
siesta: Ekinion =         0.000000
siesta: Eharris =     -9468.532256
siesta: Etot    =     -9468.523805
siesta: FreeEng =     -9468.583908

siesta: Final energy (eV):
siesta:  Band Struct. =   -4248.936368
siesta:       Kinetic =    8454.059544
siesta:       Hartree =   27647.997624
siesta:    Ext. field =       0.000000
siesta:   Exch.-corr. =   -4371.085206
siesta:  Ion-electron =  -63445.852125
siesta:       Ion-ion =   22246.356359
siesta:       Ekinion =       0.000000
siesta:         Total =   -9468.523805

siesta: Atomic forces (eV/Ang):
siesta:      1   20.125883   -1.681684    0.000000
siesta:      2    3.081065   -2.455413    0.000000
siesta:      3  -16.576169   -2.908991    0.000000
siesta:      4    0.258571  409.517541    0.000000
siesta:      5   -1.091445    0.513662    0.000000
siesta:      6    4.268356   -2.894538    0.000000
siesta:      7   -1.076413    1.757004    0.000000
siesta:      8   -1.043034   -3.172691    0.000000
siesta:      9   -4.902629    3.281091    0.000000
siesta:     10    2.559972   -2.289152    0.000000
siesta:     11   -4.994550    2.738840    0.000000
siesta:     12   -1.122066   -0.257170    0.000000
siesta:     13    2.272606    2.704247    0.000000
siesta:     14    0.863400    0.312086    0.000000
siesta:     15   -1.056391 -408.563753    0.000000
siesta:     16   15.473541    3.288368    0.000000
siesta:     17   -2.460324  404.976807    0.000000
siesta:     18    3.646064 -127.733878    0.000000
siesta:     19    2.230652  127.524241    0.000000
siesta:     20  -18.356043 -552.712598    0.000000
siesta:     21   -2.061936  128.041841    0.000000
siesta:     22   17.249407 -552.010203    0.000000
siesta:     23   26.148367    4.765333    0.000000
siesta:     24   33.305496 -549.688740    0.000000
siesta:     25    7.028265    2.549098    0.000000
siesta:     26   -2.583104    1.076364    0.000000
siesta:     27    6.260362    4.276544    0.000000
siesta:     28   -1.755033    0.248955    0.000000
siesta:     29  -26.735650    4.542755    0.000000
siesta:     30  -32.433020 -549.014567    0.000000
siesta:     31   17.911346  552.779058    0.000000
siesta:     32   -2.169847 -127.779069    0.000000
siesta:     33   32.274139  548.961798    0.000000
siesta:     34   26.183015   -3.923973    0.000000
siesta:     35   -2.451563   -2.046340    0.000000
siesta:     36    3.219287   -0.277788    0.000000
siesta:     37   -1.514094   -0.523640    0.000000
siesta:     38    3.264777   -1.861338    0.000000
siesta:     39   -0.260864    6.350031    0.000000
siesta:     40   -0.708689   -6.830516    0.000000
siesta:     41  -16.873904  548.312720    0.000000
siesta:     42    1.971415 -127.645607    0.000000
siesta:     43   -0.145998  547.420157    0.000000
siesta:     44    0.059615 -125.962026    0.000000
siesta:     45   25.294751  554.532781    0.000000
siesta:     46    0.898974    2.111207    0.000000
siesta:     47    4.259516   -1.935453    0.000000
siesta:     48   -0.954100   -3.526126    0.000000
siesta:     49  -32.965109  549.692359    0.000000
siesta:     50  -26.359052   -4.491599    0.000000
siesta:     51  -23.604246  555.336395    0.000000
siesta:     52    2.731932   -1.392746    0.000000
siesta:     53   -7.263157   -1.965708    0.000000
siesta:     54    1.584173   -0.872997    0.000000
siesta:     55   -2.726491   -1.313983    0.000000
siesta:     56   -2.159542    2.088247    0.000000
siesta:     57   -0.388916   -0.363653    0.000000
siesta:     58    0.316721    6.924374    0.000000
siesta:     59    0.208617   -7.087328    0.000000
siesta:     60   -2.649958    1.704230    0.000000
siesta:     61    1.310283    0.526003    0.000000
siesta:     62   -2.610615    2.073776    0.000000
siesta:     63    0.818955   -1.898050    0.000000
siesta:     64   23.096624 -554.890274    0.000000
siesta:     65  -22.111071    2.676537    0.000000
siesta:     66  -24.532537 -557.708688    0.000000
siesta:     67   -2.522995    0.366183    0.000000
siesta:     68    2.654992    1.980057    0.000000
siesta:     69    0.895712  126.374063    0.000000
siesta:     70   -0.116141 -547.344022    0.000000
siesta:     71   -1.336208  128.688367    0.000000
siesta:     72    0.878967 -404.085763    0.000000
siesta: ----------------------------------------
siesta:    Tot   -0.067090   -0.096945    0.000000

siesta: Stress tensor (static) (eV/Ang**3):
siesta:    -0.509610   -0.001634    0.000000
siesta:    -0.001633   -1.731876    0.000000
siesta:     0.000000    0.000000   -0.000374

siesta: Cell volume =       1893.226884 Ang**3

siesta: Pressure (static):
siesta:                Solid            Molecule  Units
siesta:           0.00813891          0.11789125  Ry/Bohr**3
siesta:           0.74728671         10.82437356  eV/Ang**3
siesta:        1197.29825399      17342.74585820  kBar
(Free)E+ p_basis*V_orbitals  =       -9432.791036
(Free)Eharris+ p_basis*V_orbitals  =       -9432.797685

siesta: Electric dipole (a.u.)  =    0.000000    0.000000    0.000000
siesta: Electric dipole (Debye) =    0.000000    0.000000    0.000000

* Maximum dynamic memory allocated : Node    0 =   165 MB
* Maximum dynamic memory allocated : Node    1 =    65 MB
* Maximum dynamic memory allocated : Node    2 =    67 MB
* Maximum dynamic memory allocated : Node    3 =   152 MB
* Maximum dynamic memory allocated : Node    4 =   162 MB
* Maximum dynamic memory allocated : Node    5 =    59 MB
* Maximum dynamic memory allocated : Node    6 =    61 MB
* Maximum dynamic memory allocated : Node    7 =   152 MB
* Maximum dynamic memory allocated : Node    8 =   157 MB
* Maximum dynamic memory allocated : Node    9 =    62 MB
* Maximum dynamic memory allocated : Node   10 =    65 MB
* Maximum dynamic memory allocated : Node   11 =   150 MB

* Maximum memory occured during matrixMtoO                    

timer: CPU execution times:
timer:  Routine       Calls   Time/call    Tot.time        %
timer:  siesta            1  175892.169  175892.169   100.00
timer:  Setup             1       3.278       3.278     0.00
timer:  bands             3     418.791    1256.374     0.71
timer:  writewave         1       0.002       0.002     0.00
timer:  KSV_init          1       0.000       0.000     0.00
timer:  IterMD            1  174625.684  174625.684    99.28
timer:  hsparse           1       0.283       0.283     0.00
timer:  overlap           1       7.418       7.418     0.00
timer:  IterSCF          33    5286.864  174466.515    99.19
timer:  kinefsm           2       3.780       7.560     0.00
timer:  nlefsm            2      20.160      40.319     0.02
timer:  DHSCF            34      83.710    2846.145     1.62
timer:  DHSCF1            1       1.190       1.190     0.00
timer:  DHSCF2            1      36.646      36.646     0.02
timer:  REORD           274       0.002       0.675     0.00
timer:  POISON           35       0.629      22.015     0.01
timer:  DHSCF3           34      81.752    2779.561     1.58
timer:  rhoofd           34      18.257     620.753     0.35
timer:  cellXC           34       2.951     100.325     0.06
timer:  vmat             34      37.935    1289.801     0.73
timer:  MolMec            2       0.000       0.000     0.00
timer:  diagon           33    5201.002  171633.050    97.58
timer:  c-eigval       7744      10.364   80256.539    45.63
timer:  c-buildHS      7744       0.034     260.247     0.15
timer:  cdiag         15367      10.625  163273.707    92.83
timer:  cdiag1        15367       0.477    7325.075     4.16
timer:  cdiag2        15367       3.376   51883.354    29.50
timer:  cdiag3        15367       6.318   97093.346    55.20
timer:  cdiag4        15367       0.165    2539.158     1.44
timer:  c-eigvec       7623      10.955   83506.767    47.48
timer:  c-buildD       7623       1.192    9084.724     5.16
timer:  DHSCF4            1      28.474      28.474     0.02
timer:  dfscf             1      26.376      26.376     0.01
timer:  overfsm           1       0.336       0.336     0.00
timer:  optical           1       6.129       6.129     0.00
  

elaps: ELAPSED times:
elaps:  Routine       Calls   Time/call    Tot.time        %
elaps:  siesta            1   15330.573   15330.573   100.00
elaps:  Setup             1       0.286       0.286     0.00
elaps:  bands             3      36.519     109.556     0.71
elaps:  writewave         1       0.002       0.002     0.00
elaps:  KSV_init          1       0.000       0.000     0.00
elaps:  IterMD            1   15220.185   15220.185    99.28
elaps:  hsparse           1       0.028       0.028     0.00
elaps:  overlap           1       0.725       0.725     0.00
elaps:  IterSCF          33     460.800   15206.411    99.19
elaps:  kinefsm           2       0.372       0.745     0.00
elaps:  nlefsm            2       1.798       3.597     0.02
elaps:  DHSCF            34       7.362     250.292     1.63
elaps:  DHSCF1            1       0.101       0.101     0.00
elaps:  DHSCF2            1       3.206       3.206     0.02
elaps:  REORD           274       0.000       0.077     0.00
elaps:  POISON           35       0.057       1.988     0.01
elaps:  DHSCF3           34       7.125     242.247     1.58
elaps:  rhoofd           34       3.173     107.874     0.70
elaps:  cellXC           34       0.257       8.731     0.06
elaps:  vmat             34       3.307     112.428     0.73
elaps:  MolMec            2       0.000       0.000     0.00
elaps:  diagon           33     453.322   14959.630    97.58
elaps:  c-eigval       7744       0.903    6995.181    45.63
elaps:  c-buildHS      7744       0.004      27.948     0.18
elaps:  cdiag         15367       0.921   14152.874    92.32
elaps:  cdiag1        15367       0.041     631.198     4.12
elaps:  cdiag2        15367       0.295    4528.881    29.54
elaps:  cdiag3        15367       0.552    8479.771    55.31
elaps:  cdiag4        15367       0.014     209.120     1.36
elaps:  c-eigvec       7623       0.946    7212.944    47.05
elaps:  c-buildD       7623       0.112     855.615     5.58
elaps:  DHSCF4            1       4.705       4.705     0.03
elaps:  dfscf             1       4.449       4.449     0.03
elaps:  overfsm           1       0.035       0.035     0.00
elaps:  optical           1       0.000       0.000     0.00
  
>> End of run:   2-MAY-2016   4:45:03
