Siesta Version:                                        siesta-3.2-pl-3
Architecture  : x86_64-unknown-linux-gnu--unknown
Compiler flags: mpiifort -g -O2 -fPIC -xSSE4.1 -fp-model source -shared-intel 
PARALLEL version

* Running on   12 nodes in parallel
>> Start of run:   7-MAY-2016   5:57:01

                           ***********************       
                           *  WELCOME TO SIESTA  *       
                           ***********************       

reinit: Reading from standard input
************************** Dump of input data file ****************************
#(1) General system descriptors
SystemName            GRP_doping    # Descriptive name of the system
SystemLabel           GRP_doping    # Short name for naming files
%include STRUCT.fdf
%include KPT.fdf
%include BASIS.fdf
#%include TS.fdf # for transiesta calculation
#(4) DFT, Grid, SCF
XC.functional         GGA           # LDA or GGA (default = LDA)
XC.authors            PBE           # CA (Ceperley-Aldr) = PZ
                                    #    (Perdew-Zunger) - LDA - Default
                                    # PW92 (Perdew-Wang-92) - LDA
                                    # PBE (Perdew-Burke-Ernzerhof) - GGA
MeshCutoff            200.000000    Ry      # Default: 50.0 Ry ~ 0.444 Bohr
                                    #         100.0 Ry ~ 0.314 Bohr
MaxSCFIterations      500           # Default: 50
DM.MixingWeight       0.05          # Default: 0.25
DM.NumberPulay        10            # Default: 0
DM.PulayOnFile        F             # SystemLabel.P1, SystemLabel.P2
DM.Tolerance          1.d-4         # Default: 1.d-4
DM.UseSaveDM          .true.        # because of the bug
SCFMustConverge       .true.
NeglNonOverlapInt     F             # Default: F
#(5) Eigenvalue problem: order-N or diagonalization
SolutionMethod        Diagon        # or Transiesta
ElectronicTemperature 300.0 K       # Default: 300.0 K
#(6) Molecular dynamics and relaxations
#MD.TypeOfRun          CG            # Type of dynamics:
#MD.VariableCell       F
#MD.NumCGsteps         0           # 0 for single-point / 100 for gopt
#MD.MaxCGDispl         0.2 Bohr      # Default: 0.2 Bohr
#MD.MaxForceTol        0.02 eV/Ang   # Default: 0.04 eV/Ang
#MD.MaxStressTol       1.0 GPa       # Default: 1.0 GPa
# Geometry Constraints
#%block GeometryConstraints
#	position from 1 to 44
#%endblock GeometryConstraints
BandLinesScale   pi/a
%block BandLines
 1   0.00000000  0.00000000  0.00000000
50   0.00000000  0.07809418  0.00000000
50   0.04509075  0.07809242  0.00000000
20   0.00000000  0.00000000  0.00000000
%endblock BandLines
************************** End of input data file *****************************

reinit: -----------------------------------------------------------------------
reinit: System Name: GRP_doping
reinit: -----------------------------------------------------------------------
reinit: System Label: GRP_doping                                                  
reinit: -----------------------------------------------------------------------

initatom: Reading input for the pseudopotentials and atomic orbitals ----------
 Species number:            1  Label: N Atomic number:           7
 Species number:            2  Label: C Atomic number:           6
Ground state valence configuration:   2s02  2p03
Reading pseudopotential information in formatted form from N.psf

Valence configuration for pseudopotential generation:
2s( 2.00) rc: 1.48
2p( 3.00) rc: 1.48
3d( 0.00) rc: 1.48
4f( 0.00) rc: 1.48
Ground state valence configuration:   2s02  2p02
Reading pseudopotential information in formatted form from C.psf

Valence configuration for pseudopotential generation:
2s( 2.00) rc: 1.54
2p( 2.00) rc: 1.54
3d( 0.00) rc: 1.54
4f( 0.00) rc: 1.54
For N, standard SIESTA heuristics set lmxkb to 3
 (one more than the basis l, including polarization orbitals).
Use PS.lmax or PS.KBprojectors blocks to override.
For C, standard SIESTA heuristics set lmxkb to 3
 (one more than the basis l, including polarization orbitals).
Use PS.lmax or PS.KBprojectors blocks to override.

<basis_specs>
===============================================================================
N                    Z=   7    Mass=  14.010        Charge= 0.17977+309
Lmxo=1 Lmxkb= 3    BasisType=split      Semic=F
L=0  Nsemic=0  Cnfigmx=2
          n=1  nzeta=2  polorb=0
            splnorm:   0.15000    
               vcte:    0.0000    
               rinn:    0.0000    
                rcs:    0.0000      0.0000    
            lambdas:    1.0000      1.0000    
L=1  Nsemic=0  Cnfigmx=2
          n=1  nzeta=2  polorb=1
            splnorm:   0.15000    
               vcte:    0.0000    
               rinn:    0.0000    
                rcs:    0.0000      0.0000    
            lambdas:    1.0000      1.0000    
-------------------------------------------------------------------------------
L=0  Nkbl=1  erefs: 0.17977+309
L=1  Nkbl=1  erefs: 0.17977+309
L=2  Nkbl=1  erefs: 0.17977+309
L=3  Nkbl=1  erefs: 0.17977+309
===============================================================================
</basis_specs>

atom: Called for N                     (Z =   7)

read_vps: Pseudopotential generation method:
read_vps: ATM3      Troullier-Martins                       
Total valence charge:    5.00000

read_vps: Pseudopotential includes a core correction:
read_vps: Pseudo-core for xc-correction

xc_check: Exchange-correlation functional:
xc_check: GGA Perdew, Burke & Ernzerhof 1996
V l=0 = -2*Zval/r beyond r=  1.4606
V l=1 = -2*Zval/r beyond r=  1.4606
V l=2 = -2*Zval/r beyond r=  1.4606
V l=3 = -2*Zval/r beyond r=  1.4606
All V_l potentials equal beyond r=  1.4606
This should be close to max(r_c) in ps generation
All pots = -2*Zval/r beyond r=  1.4606

VLOCAL1: 99.0% of the norm of Vloc inside     20.347 Ry
VLOCAL1: 99.9% of the norm of Vloc inside     46.372 Ry
atom: Maximum radius for 4*pi*r*r*local-pseudopot. charge    1.76189
atom: Maximum radius for r*vlocal+2*Zval:    1.53550
GHOST: No ghost state for L =  0
GHOST: No ghost state for L =  1
GHOST: No ghost state for L =  2
GHOST: No ghost state for L =  3

KBgen: Kleinman-Bylander projectors: 
   l= 0   rc=  1.634559   el= -1.363963   Ekb=  5.296955   kbcos=  0.335621
   l= 1   rc=  1.614250   el= -0.521451   Ekb= -5.259161   kbcos= -0.433408
   l= 2   rc=  1.718383   el=  0.001991   Ekb= -1.271464   kbcos= -0.007566
   l= 3   rc=  1.761893   el=  0.003093   Ekb= -0.494769   kbcos= -0.001015

KBgen: Total number of  Kleinman-Bylander projectors:   16
atom: -------------------------------------------------------------------------

atom: SANKEY-TYPE ORBITALS:
atom: Selected multiple-zeta basis: split     

SPLIT: Orbitals with angular momentum L= 0

SPLIT: Basis orbitals for state 2s

SPLIT: PAO cut-off radius determined from an
SPLIT: energy shift=  0.007350 Ry

   izeta = 1
                 lambda =    1.000000
                     rc =    4.071465
                 energy =   -1.356470
                kinetic =    1.176977
    potential(screened) =   -2.533447
       potential(ionic) =   -8.057990

   izeta = 2
                 rmatch =    2.905100
              splitnorm =    0.150000
                 energy =   -1.158343
                kinetic =    1.813009
    potential(screened) =   -2.971352
       potential(ionic) =   -8.901931

SPLIT: Orbitals with angular momentum L= 1

SPLIT: Basis orbitals for state 2p

SPLIT: PAO cut-off radius determined from an
SPLIT: energy shift=  0.007350 Ry

   izeta = 1
                 lambda =    1.000000
                     rc =    4.972977
                 energy =   -0.513884
                kinetic =    3.441732
    potential(screened) =   -3.955616
       potential(ionic) =   -9.287901

   izeta = 2
                 rmatch =    3.054066
              splitnorm =    0.150000
                 energy =   -0.318226
                kinetic =    5.125348
    potential(screened) =   -5.443573
       potential(ionic) =  -11.380999

POLgen: Perturbative polarization orbital with L=  2

POLgen: Polarization orbital for state 2p

   izeta = 1
                     rc =    4.972977
                 energy =    1.607437
                kinetic =    3.268125
    potential(screened) =   -1.660688
       potential(ionic) =   -5.973652
atom: Total number of Sankey-type orbitals: 13

atm_pop: Valence configuration (for local Pseudopot. screening):
 2s( 2.00)                                                            
 2p( 3.00)                                                            
Vna: chval, zval:    5.00000   5.00000

Vna:  Cut-off radius for the neutral-atom potential:   4.972977
comcore: Pseudo-core radius Rcore=  1.554824

atom: _________________________________________________________________________

<basis_specs>
===============================================================================
C                    Z=   6    Mass=  12.010        Charge= 0.17977+309
Lmxo=1 Lmxkb= 3    BasisType=split      Semic=F
L=0  Nsemic=0  Cnfigmx=2
          n=1  nzeta=2  polorb=0
            splnorm:   0.15000    
               vcte:    0.0000    
               rinn:    0.0000    
                rcs:    0.0000      0.0000    
            lambdas:    1.0000      1.0000    
L=1  Nsemic=0  Cnfigmx=2
          n=1  nzeta=2  polorb=1
            splnorm:   0.15000    
               vcte:    0.0000    
               rinn:    0.0000    
                rcs:    0.0000      0.0000    
            lambdas:    1.0000      1.0000    
-------------------------------------------------------------------------------
L=0  Nkbl=1  erefs: 0.17977+309
L=1  Nkbl=1  erefs: 0.17977+309
L=2  Nkbl=1  erefs: 0.17977+309
L=3  Nkbl=1  erefs: 0.17977+309
===============================================================================
</basis_specs>

atom: Called for C                     (Z =   6)

read_vps: Pseudopotential generation method:
read_vps: ATM3      Troullier-Martins                       
Total valence charge:    4.00000

read_vps: Pseudopotential includes a core correction:
read_vps: Pseudo-core for xc-correction

xc_check: Exchange-correlation functional:
xc_check: GGA Perdew, Burke & Ernzerhof 1996
V l=0 = -2*Zval/r beyond r=  1.5227
V l=1 = -2*Zval/r beyond r=  1.5227
V l=2 = -2*Zval/r beyond r=  1.5227
V l=3 = -2*Zval/r beyond r=  1.5038
All V_l potentials equal beyond r=  1.5227
This should be close to max(r_c) in ps generation
All pots = -2*Zval/r beyond r=  1.5227

VLOCAL1: 99.0% of the norm of Vloc inside     18.722 Ry
VLOCAL1: 99.9% of the norm of Vloc inside     42.668 Ry
atom: Maximum radius for 4*pi*r*r*local-pseudopot. charge    1.83678
atom: Maximum radius for r*vlocal+2*Zval:    1.58088
GHOST: No ghost state for L =  0
GHOST: No ghost state for L =  1
GHOST: No ghost state for L =  2
GHOST: No ghost state for L =  3

KBgen: Kleinman-Bylander projectors: 
   l= 0   rc=  1.704034   el= -1.009801   Ekb=  5.335044   kbcos=  0.316824
   l= 1   rc=  1.704034   el= -0.388707   Ekb= -3.785862   kbcos= -0.366464
   l= 2   rc=  1.791422   el=  0.001971   Ekb= -0.970471   kbcos= -0.009212
   l= 3   rc=  1.859892   el=  0.003065   Ekb= -0.399525   kbcos= -0.001223

KBgen: Total number of  Kleinman-Bylander projectors:   16
atom: -------------------------------------------------------------------------

atom: SANKEY-TYPE ORBITALS:
atom: Selected multiple-zeta basis: split     

SPLIT: Orbitals with angular momentum L= 0

SPLIT: Basis orbitals for state 2s

SPLIT: PAO cut-off radius determined from an
SPLIT: energy shift=  0.007350 Ry

   izeta = 1
                 lambda =    1.000000
                     rc =    4.632753
                 energy =   -1.002270
                kinetic =    0.855760
    potential(screened) =   -1.858031
       potential(ionic) =   -5.417575

   izeta = 2
                 rmatch =    3.431921
              splitnorm =    0.150000
                 energy =   -0.867111
                kinetic =    1.300804
    potential(screened) =   -2.167915
       potential(ionic) =   -5.962684

SPLIT: Orbitals with angular momentum L= 1

SPLIT: Basis orbitals for state 2p

SPLIT: PAO cut-off radius determined from an
SPLIT: energy shift=  0.007350 Ry

   izeta = 1
                 lambda =    1.000000
                     rc =    5.658549
                 energy =   -0.381140
                kinetic =    2.399701
    potential(screened) =   -2.780841
       potential(ionic) =   -6.206085

   izeta = 2
                 rmatch =    3.653288
              splitnorm =    0.150000
                 energy =   -0.249149
                kinetic =    3.542762
    potential(screened) =   -3.791911
       potential(ionic) =   -7.581078

POLgen: Perturbative polarization orbital with L=  2

POLgen: Polarization orbital for state 2p

   izeta = 1
                     rc =    5.658549
                 energy =    1.109913
                kinetic =    2.304789
    potential(screened) =   -1.194876
       potential(ionic) =   -4.013592
atom: Total number of Sankey-type orbitals: 13

atm_pop: Valence configuration (for local Pseudopot. screening):
 2s( 2.00)                                                            
 2p( 2.00)                                                            
Vna: chval, zval:    4.00000   4.00000

Vna:  Cut-off radius for the neutral-atom potential:   5.658549
comcore: Pseudo-core radius Rcore=  1.791422

atom: _________________________________________________________________________

prinput: Basis input ----------------------------------------------------------

PAO.BasisType split     

%block ChemicalSpeciesLabel
    1    7 N                       # Species index, atomic number, species label
    2    6 C                       # Species index, atomic number, species label
%endblock ChemicalSpeciesLabel

%block PAO.Basis                 # Define Basis set
N                     2                    # Species label, number of l-shells
 n=2   0   2                         # n, l, Nzeta 
   4.071      2.905   
   1.000      1.000   
 n=2   1   2 P   1                   # n, l, Nzeta, Polarization, NzetaPol
   4.973      3.054   
   1.000      1.000   
C                     2                    # Species label, number of l-shells
 n=2   0   2                         # n, l, Nzeta 
   4.633      3.432   
   1.000      1.000   
 n=2   1   2 P   1                   # n, l, Nzeta, Polarization, NzetaPol
   5.659      3.653   
   1.000      1.000   
%endblock PAO.Basis

prinput: ----------------------------------------------------------------------

coor:   Atomic-coordinates input format  =     Fractional

siesta: Atomic coordinates (Bohr) and species
siesta:     -4.68258  18.72698   0.00000  1        1
siesta:     -2.35420  22.75985   0.00000  1        2
siesta:     -7.01096  22.75985   0.00000  1        3
siesta:     -0.02582  26.79272   0.00000  1        4
siesta:     -4.68258  26.79272   0.00000  1        5
siesta:      2.30256  30.82560   0.00000  1        6
siesta:     -2.35420  30.82560   0.00000  1        7
siesta:     -0.02582  34.85847   0.00000  1        8
siesta:     -0.02582   2.59549   0.00000  2        9
siesta:     -0.02582   5.28395   0.00000  2       10
siesta:     -2.35420  38.89134   0.00000  2       11
siesta:     -2.35420  41.57980   0.00000  2       12
siesta:      2.30256  38.89134   0.00000  2       13
siesta:      2.30256  41.57980   0.00000  2       14
siesta:      4.63094  34.85847   0.00000  2       15
siesta:      4.63094  37.54693   0.00000  2       16
siesta:      6.95932  30.82560   0.00000  2       17
siesta:      6.95932  33.51406   0.00000  2       18
siesta:      9.28770  26.79272   0.00000  2       19
siesta:      9.28770  29.48119   0.00000  2       20
siesta:     -4.68258  34.85847   0.00000  2       21
siesta:     -4.68258  37.54693   0.00000  2       22
siesta:      2.30256   6.62836   0.00000  2       23
siesta:      2.30256   9.31683   0.00000  2       24
siesta:      4.63094  10.66124   0.00000  2       25
siesta:      4.63094  13.34970   0.00000  2       26
siesta:      6.95932  14.69411   0.00000  2       27
siesta:      6.95932  17.38257   0.00000  2       28
siesta:      9.28770  18.72698   0.00000  2       29
siesta:      9.28770  21.41544   0.00000  2       30
siesta:     11.61608  22.75985   0.00000  2       31
siesta:     11.61608  25.44831   0.00000  2       32
siesta:     -2.35420   6.62836   0.00000  2       33
siesta:     -2.35420   9.31683   0.00000  2       34
siesta:     -0.02582  10.66124   0.00000  2       35
siesta:     -0.02582  13.34970   0.00000  2       36
siesta:      2.30256  14.69411   0.00000  2       37
siesta:      2.30256  17.38257   0.00000  2       38
siesta:      4.63094  18.72698   0.00000  2       39
siesta:      4.63094  21.41544   0.00000  2       40
siesta:      6.95932  22.75985   0.00000  2       41
siesta:      6.95932  25.44831   0.00000  2       42
siesta:     -4.68258  10.66124   0.00000  2       43
siesta:     -4.68258  13.34970   0.00000  2       44
siesta:     -2.35420  14.69411   0.00000  2       45
siesta:     -2.35420  17.38257   0.00000  2       46
siesta:     -0.02582  18.72698   0.00000  2       47
siesta:     -0.02582  21.41544   0.00000  2       48
siesta:      2.30256  22.75985   0.00000  2       49
siesta:      2.30256  25.44831   0.00000  2       50
siesta:     -7.01096  14.69411   0.00000  2       51
siesta:     -7.01096  17.38257   0.00000  2       52
siesta:     -4.68258  21.41544   0.00000  2       53
siesta:     -2.35420  25.44831   0.00000  2       54
siesta:     -9.33934  18.72698   0.00000  2       55
siesta:     -9.33934  21.41544   0.00000  2       56
siesta:     -7.01096  25.44831   0.00000  2       57
siesta:    -11.66772  22.75985   0.00000  2       58
siesta:    -11.66772  25.44831   0.00000  2       59
siesta:     -9.33934  26.79272   0.00000  2       60
siesta:     -9.33934  29.48119   0.00000  2       61
siesta:      4.63094  26.79272   0.00000  2       62
siesta:      4.63094  29.48119   0.00000  2       63
siesta:     -0.02582  29.48119   0.00000  2       64
siesta:     -4.68258  29.48119   0.00000  2       65
siesta:      2.30256  33.51406   0.00000  2       66
siesta:     -2.35420  33.51406   0.00000  2       67
siesta:     -7.01096  30.82560   0.00000  2       68
siesta:     -7.01096  33.51406   0.00000  2       69
siesta:     -0.02582  37.54693   0.00000  2       70
siesta:     -0.02582  42.92421   0.00000  2       71
siesta:     -0.02582  45.61267   0.00000  2       72

siesta: System type = slab      

initatomlists: Number of atoms, orbitals, and projectors:     72   936  1152

siesta: ******************** Simulation parameters ****************************
siesta:
siesta: The following are some of the parameters of the simulation.
siesta: A complete list of the parameters used, including default values,
siesta: can be found in file out.fdf
siesta:
redata: Non-Collinear-spin run           =     F
redata: SpinPolarized (Up/Down) run      =     F
redata: Number of spin components        =     1
redata: Long output                      =     F
redata: Number of Atomic Species         =        2
redata: Charge density info will appear in .RHO file
redata: Write Mulliken Pop.              =     NO
redata: Mesh Cutoff                      =   200.0000  Ry
redata: Net charge of the system         =     0.0000 |e|
redata: Max. number of SCF Iter          =      500
redata: SCF convergence failure will abort job
redata: Performing Pulay mixing using    =    10 iterations
redata: Mix DM in first SCF step ?       =     F
redata: Write Pulay info on disk?        =     F
redata: Discard 1st Pulay DM after  kick =     F
redata: New DM Mixing Weight             =     0.0500
redata: New DM Occupancy tolerance       = 0.000000000001
redata: No kicks to SCF
redata: DM Mixing Weight for Kicks       =     0.5000
redata: DM Tolerance for SCF             =     0.000100
redata: Require Energy convergence for SCF =     F
redata: DM Energy tolerance for SCF      =     0.000100 eV
redata: Require Harris convergence for SCF =     F
redata: DM Harris energy tolerance for SCF =     0.000100 eV
redata: Using Saved Data (generic)   =     F
redata: Use continuation files for DM    =     T
redata: Neglect nonoverlap interactions  =     F
redata: Method of Calculation            =     Diagonalization
redata: Divide and Conquer               =     T
redata: Electronic Temperature           =     0.0019  Ry
redata: Fix the spin of the system       =     F
redata: Dynamics option                  =     Verlet MD run
redata: Initial MD time step             =        1
redata:   Final MD time step             =        1
redata: Length of MD time step           =     1.0000  fs
redata: Initial Temperature of MD run    =     0.0000  K
redata: Perform a MD quench              =     F
redata: ***********************************************************************
Total number of electrons:   296.000000
Total ionic charge:   296.000000

* ProcessorY, Blocksize:    3  24

k-point displ. along   1 input, could be:     0.50    0.00
k-point displ. along   2 input, could be:     0.50    0.00
 Kpoints in:          231 . Kpoints trimmed:          231

siesta: k-grid: Number of k-points =   231
siesta: k-grid: Cutoff (effective) =     5.000 Ang
siesta: k-grid: Supercell and displacements
siesta: k-grid:   21   0   0      0.500
siesta: k-grid:    0  21   0      0.500
siesta: k-grid:    0   0   1      0.000
Naive supercell factors:     2    2    2

superc: Internal auxiliary supercell:     2 x     2 x     2  =       8
superc: Number of atoms, orbitals, and projectors:    576   7488   9216

* Maximum dynamic memory allocated =     4 MB

siesta:                 ==============================
                            Begin MD step =      1
                        ==============================

superc: Internal auxiliary supercell:     2 x     2 x     2  =       8
superc: Number of atoms, orbitals, and projectors:    576   7488   9216

outcell: Unit cell vectors (Ang):
       12.804619    7.392750    0.000000
        0.000000   14.785500    0.000000
        0.000000    0.000000   10.000000

outcell: Cell vector modules (Ang)   :   14.785500   14.785500   10.000000
outcell: Cell angles (23,13,12) (deg):     90.0000     90.0000     60.0000
outcell: Cell volume (Ang**3)        :   1893.2269
New_DM. Step:     1
Initializing Density Matrix...

InitMesh: MESH =   120 x   120 x    90 =     1296000
InitMesh: Mesh cutoff (required, used) =   200.000   223.865 Ry

* Maximum dynamic memory allocated =   137 MB

stepf: Fermi-Dirac step function

siesta: Program's energy decomposition (eV):
siesta: Ebs     =     -5998.415822
siesta: Eions   =     19688.985824
siesta: Ena     =      4790.307539
siesta: Ekin    =      7049.557044
siesta: Enl     =       392.835571
siesta: DEna    =        -0.000015
siesta: DUscf   =         0.000000
siesta: DUext   =         0.000000
siesta: Exc     =     -4364.407879
siesta: eta*DQ  =         0.000000
siesta: Emadel  =         0.000000
siesta: Emeta   =         0.000000
siesta: Emolmec =         0.000000
siesta: Ekinion =         0.000000
siesta: Eharris =    -11481.382524
siesta: Etot    =    -11820.693564
siesta: FreeEng =    -11820.693564

siesta: iscf   Eharris(eV)      E_KS(eV)   FreeEng(eV)   dDmax  Ef(eV)
siesta:    1   -11481.3825   -11820.6936   -11820.6936  8.2131 -7.4391
timer: Routine,Calls,Time,% = IterSCF        1    3002.481  99.59
elaps: Routine,Calls,Wall,% = IterSCF        1     250.803  99.59
siesta:    2   -15875.0514   -10838.6621   -10838.6970 16.0518 -4.3907
siesta:    3   -11452.3277   -11594.2774   -11594.3370  2.5070 -4.3555
siesta:    4   -11386.2361   -11503.9485   -11503.9902  1.3671 -4.4590
siesta:    5   -11359.1755   -11443.4507   -11443.4667  0.9578 -4.0672
siesta:    6   -11341.2078   -11411.8861   -11411.9157  0.9737 -3.8742
siesta:    7   -11332.5086   -11395.4537   -11395.4846  0.7760 -4.0045
siesta:    8   -11330.0660   -11385.5836   -11385.6092  0.7043 -4.0133
siesta:    9   -11327.5781   -11355.7267   -11355.7669  0.4732 -4.1447
siesta:   10   -11328.3957   -11334.3832   -11334.4370  0.3259 -4.1400
siesta:   11   -11327.3666   -11330.4956   -11330.5812  0.2674 -4.0842
siesta:   12   -11326.3050   -11319.5621   -11319.6164  0.2812 -4.0310
siesta:   13   -11327.1225   -11318.0562   -11318.1092  0.2434 -4.0131
siesta:   14   -11326.7456   -11321.7092   -11321.7576  0.1471 -3.9835
siesta:   15   -11326.5088   -11322.5368   -11322.5918  0.0929 -4.0406
siesta:   16   -11326.2807   -11323.5181   -11323.5738  0.0542 -4.1051
siesta:   17   -11326.2282   -11324.8001   -11324.8599  0.0395 -4.1166
siesta:   18   -11326.2167   -11325.9322   -11325.9911  0.0366 -4.1216
siesta:   19   -11326.2070   -11326.2109   -11326.2693  0.0480 -4.1039
siesta:   20   -11326.2090   -11326.5164   -11326.5818  0.0334 -4.1058
siesta:   21   -11326.2066   -11326.5326   -11326.5962  0.0270 -4.1114
siesta:   22   -11326.1985   -11327.2732   -11327.3379  0.0174 -4.1077
siesta:   23   -11326.1948   -11327.0533   -11327.1150  0.0142 -4.1091
siesta:   24   -11326.1934   -11326.6774   -11326.7398  0.0092 -4.1050
siesta:   25   -11326.1927   -11326.5066   -11326.5685  0.0065 -4.1052
siesta:   26   -11326.1932   -11326.4571   -11326.5190  0.0038 -4.1036
siesta:   27   -11326.1929   -11326.3752   -11326.4364  0.0026 -4.1048
siesta:   28   -11326.1929   -11326.3840   -11326.4453  0.0026 -4.1046
siesta:   29   -11326.1929   -11326.3709   -11326.4322  0.0026 -4.1046
siesta:   30   -11326.1927   -11326.2284   -11326.2897  0.0009 -4.1052
siesta:   31   -11326.1926   -11326.1885   -11326.2500  0.0005 -4.1055
siesta:   32   -11325.0820   -11326.1970   -11326.2586  0.0667 -4.1058
siesta:   33   -11326.1926   -11326.1943   -11326.2557  0.0003 -4.1055
siesta:   34   -11325.0810   -11326.1873   -11326.2487  0.0672 -4.1058
siesta:   35   -11326.1926   -11326.1872   -11326.2487  0.0002 -4.1055
siesta:   36   -11326.1926   -11326.1889   -11326.2504  0.0001 -4.1055
siesta:   37   -11323.9702   -11326.1873   -11326.2488  0.1343 -4.1061
siesta:   38   -11326.1926   -11326.1868   -11326.2481  0.0001 -4.1055

siesta: E_KS(eV) =           -11326.1888

siesta: E_KS - E_eggbox =    -11326.1888

siesta: Atomic forces (eV/Ang):
----------------------------------------
   Tot   -0.145041   -0.138003    0.000000
----------------------------------------
   Max  581.478107
   Res  161.655390    sqrt( Sum f_i^2 / 3N )
----------------------------------------
   Max  581.478107    constrained

Stress-tensor-Voigt (kbar):     -694.30    -2845.04       -0.13       -0.93        0.00        0.00
(Free)E + p*V (eV/cell)    -9932.1170
Target enthalpy (eV/cell)   -11326.2503

siesta: Stress tensor (static) (eV/Ang**3):
        -0.433345   -0.000582    0.000000
        -0.000582   -1.775715    0.000000
         0.000000    0.000000   -0.000079

siesta: Pressure (static):       1179.82265527  kBar

siesta: Stress tensor (total) (eV/Ang**3):
        -0.433345   -0.000582    0.000000
        -0.000582   -1.775715    0.000000
         0.000000    0.000000   -0.000079

siesta: Pressure (total):       1179.82265527  kBar

siesta: Temp_ion =       0.000 K

* Maximum dynamic memory allocated =   149 MB
Computing bands...

siesta: Program's energy decomposition (eV):
siesta: Ebs     =     -4771.592729
siesta: Eions   =     19688.985824
siesta: Ena     =      4790.307539
siesta: Ekin    =     10012.388600
siesta: Enl     =     -1250.871641
siesta: DEna    =      -758.657692
siesta: DUscf   =        99.796313
siesta: DUext   =         0.000000
siesta: Exc     =     -4530.166073
siesta: eta*DQ  =         0.000000
siesta: Emadel  =         0.000000
siesta: Emeta   =         0.000000
siesta: Emolmec =         0.000000
siesta: Ekinion =         0.000000
siesta: Eharris =    -11326.192624
siesta: Etot    =    -11326.188779
siesta: FreeEng =    -11326.250276

siesta: Final energy (eV):
siesta:  Band Struct. =   -4771.592729
siesta:       Kinetic =   10012.388600
siesta:       Hartree =   32804.033871
siesta:    Ext. field =       0.000000
siesta:   Exch.-corr. =   -4530.166073
siesta:  Ion-electron =  -75250.708380
siesta:       Ion-ion =   25638.263204
siesta:       Ekinion =       0.000000
siesta:         Total =  -11326.188779

siesta: Atomic forces (eV/Ang):
siesta:      1    1.982945    4.546345    0.000000
siesta:      2   -1.632857   -1.123528    0.000000
siesta:      3    1.533016    1.229528    0.000000
siesta:      4   -0.812712    0.377037    0.000000
siesta:      5    1.881685   -0.756142    0.000000
siesta:      6   30.020360    4.549555    0.000000
siesta:      7  -29.829919    3.796576    0.000000
siesta:      8   -0.092424  121.505865   -0.000001
siesta:      9   -0.184173  555.198435    0.000000
siesta:     10   -0.381229 -119.155022    0.000000
siesta:     11    1.597022  127.496811    0.000001
siesta:     12  -17.102156 -550.052527    0.000000
siesta:     13   -1.709305  127.874333   -0.000001
siesta:     14   17.110012 -548.899885   -0.000001
siesta:     15   27.436712    6.142240    0.000000
siesta:     16   34.290011 -548.605683    0.000000
siesta:     17    1.303714    0.439549    0.000000
siesta:     18   -2.805151    1.821823    0.000000
siesta:     19    2.176938    2.320294    0.000000
siesta:     20   -1.314050   -0.128357    0.000000
siesta:     21  -27.113141    6.089328    0.000000
siesta:     22  -34.339374 -548.776201    0.000001
siesta:     23    4.718717  546.534319    0.000000
siesta:     24   -0.682343 -123.707198    0.000000
siesta:     25   34.526202  548.428854    0.000000
siesta:     26   26.498901   -6.626312    0.000000
siesta:     27   -2.511115   -1.963697    0.000000
siesta:     28    1.671473   -0.048445    0.000000
siesta:     29   -1.102920   -0.139424    0.000000
siesta:     30    2.233571   -2.194140    0.000000
siesta:     31   -0.223173    7.730984    0.000000
siesta:     32   -0.215780   -7.684809    0.000000
siesta:     33   -5.291331  546.803030    0.000001
siesta:     34    0.901489 -123.222536    0.000000
siesta:     35   -0.111162  544.718677    0.000002
siesta:     36   -0.584696 -126.905328    0.000000
siesta:     37   21.440610  558.475116    0.000001
siesta:     38   22.639646   -6.398469    0.000000
siesta:     39   -0.978056    2.718124    0.000000
siesta:     40    0.299329   -0.546657    0.000000
siesta:     41   -0.211920    0.889299    0.000000
siesta:     42   -0.047482   -1.067590    0.000000
siesta:     43  -34.869569  548.519875   -0.000002
siesta:     44  -25.773958   -7.262909    0.000000
siesta:     45  -19.610756  560.385524    0.000001
siesta:     46  -23.135541   -6.283800    0.000000
siesta:     47   -0.680884  563.913787    0.000000
siesta:     48   -0.626505    0.681550    0.000000
siesta:     49   -0.880136    1.122738    0.000000
siesta:     50    0.384413   -0.821114    0.000000
siesta:     51    2.578222   -0.730422    0.000000
siesta:     52   -2.301815   -0.499699    0.000000
siesta:     53    0.467567    0.308379    0.000000
siesta:     54   -1.163433    0.654616    0.000000
siesta:     55    1.358789   -0.687812    0.000000
siesta:     56   -1.471043   -1.171446    0.000000
siesta:     57    0.005536   -0.823871    0.000000
siesta:     58    0.658611    5.662523    0.000000
siesta:     59    0.073088   -6.276692    0.000000
siesta:     60   -0.849109    1.344750    0.000000
siesta:     61    1.021169    0.922914    0.000000
siesta:     62   -0.851276    1.114321    0.000000
siesta:     63   -0.474379   -3.194518    0.000000
siesta:     64    0.385423 -581.478107    0.000000
siesta:     65    0.533799   -3.123952    0.000000
siesta:     66   18.328103 -559.286159    0.000001
siesta:     67  -17.926030 -559.337316    0.000000
siesta:     68   -1.473242   -0.312020    0.000000
siesta:     69    2.705660    1.764984    0.000000
siesta:     70   -0.358784 -536.671302   -0.000001
siesta:     71   -0.752724  128.181239    0.000000
siesta:     72   -0.432122 -548.438235    0.000000
siesta: ----------------------------------------
siesta:    Tot   -0.145041   -0.138003    0.000000

siesta: Stress tensor (static) (eV/Ang**3):
siesta:    -0.433345   -0.000582    0.000000
siesta:    -0.000582   -1.775715    0.000000
siesta:     0.000000    0.000000   -0.000079

siesta: Cell volume =       1893.226884 Ang**3

siesta: Pressure (static):
siesta:                Solid            Molecule  Units
siesta:           0.00802011          0.12628747  Ry/Bohr**3
siesta:           0.73637942         11.59528600  eV/Ang**3
siesta:        1179.82265527      18577.89710505  kBar
(Free)E+ p_basis*V_orbitals  =      -11296.656366
(Free)Eharris+ p_basis*V_orbitals  =      -11296.662182

siesta: Electric dipole (a.u.)  =    0.000000    0.000000    0.000000
siesta: Electric dipole (Debye) =    0.000000    0.000000    0.000000

* Maximum dynamic memory allocated : Node    0 =   148 MB
* Maximum dynamic memory allocated : Node    1 =    59 MB
* Maximum dynamic memory allocated : Node    2 =    61 MB
* Maximum dynamic memory allocated : Node    3 =   135 MB
* Maximum dynamic memory allocated : Node    4 =   149 MB
* Maximum dynamic memory allocated : Node    5 =    54 MB
* Maximum dynamic memory allocated : Node    6 =    56 MB
* Maximum dynamic memory allocated : Node    7 =   141 MB
* Maximum dynamic memory allocated : Node    8 =   131 MB
* Maximum dynamic memory allocated : Node    9 =    53 MB
* Maximum dynamic memory allocated : Node   10 =    53 MB
* Maximum dynamic memory allocated : Node   11 =   126 MB

* Maximum memory occured during matrixMtoO                    

timer: CPU execution times:
timer:  Routine       Calls   Time/call    Tot.time        %
timer:  siesta            1  111822.387  111822.387   100.00
timer:  Setup             1       3.365       3.365     0.00
timer:  bands             3     225.399     676.196     0.60
timer:  writewave         1       0.023       0.023     0.00
timer:  KSV_init          1       0.003       0.003     0.00
timer:  IterMD            1  111135.928  111135.928    99.39
timer:  hsparse           1       0.166       0.166     0.00
timer:  overlap           1       5.995       5.995     0.01
timer:  IterSCF          38    2921.242  111007.191    99.27
timer:  kinefsm           2       3.039       6.077     0.01
timer:  nlefsm            2      18.813      37.625     0.03
timer:  DHSCF            39      64.490    2515.125     2.25
timer:  DHSCF1            1       0.900       0.900     0.00
timer:  DHSCF2            1      25.205      25.205     0.02
timer:  REORD           314       0.002       0.722     0.00
timer:  POISON           40       0.450      17.999     0.02
timer:  DHSCF3           39      63.251    2466.790     2.21
timer:  rhoofd           39      13.139     512.404     0.46
timer:  cellXC           39       2.401      93.638     0.08
timer:  vmat             39      29.757    1160.522     1.04
timer:  MolMec            2       0.000       0.000     0.00
timer:  diagon           38    2855.580  108512.050    97.04
timer:  c-eigval       8899       5.570   49566.422    44.33
timer:  c-buildHS      8899       0.033     293.144     0.26
timer:  cdiag         17677       5.670  100233.977    89.64
timer:  cdiag1        17677       0.259    4582.819     4.10
timer:  cdiag2        17677       1.829   32326.356    28.91
timer:  cdiag3        17677       3.373   59624.993    53.32
timer:  cdiag4        17677       0.089    1566.023     1.40
timer:  c-eigvec       8778       5.834   51208.133    45.79
timer:  c-buildD       8778       0.953    8366.107     7.48
timer:  DHSCF4            1      21.964      21.964     0.02
timer:  dfscf             1      20.516      20.516     0.02
timer:  overfsm           1       0.288       0.288     0.00
timer:  optical           1       6.294       6.294     0.01
  

elaps: ELAPSED times:
elaps:  Routine       Calls   Time/call    Tot.time        %
elaps:  siesta            1    9340.436    9340.436   100.00
elaps:  Setup             1       0.281       0.281     0.00
elaps:  bands             3      18.843      56.528     0.61
elaps:  writewave         1       0.002       0.002     0.00
elaps:  KSV_init          1       0.000       0.000     0.00
elaps:  IterMD            1    9283.097    9283.097    99.39
elaps:  hsparse           1       0.017       0.017     0.00
elaps:  overlap           1       0.711       0.711     0.01
elaps:  IterSCF          38     244.009    9272.344    99.27
elaps:  kinefsm           2       0.364       0.727     0.01
elaps:  nlefsm            2       1.617       3.234     0.03
elaps:  DHSCF            39       5.432     211.856     2.27
elaps:  DHSCF1            1       0.077       0.077     0.00
elaps:  DHSCF2            1       2.104       2.104     0.02
elaps:  REORD           314       0.000       0.094     0.00
elaps:  POISON           40       0.038       1.529     0.02
elaps:  DHSCF3           39       5.285     206.116     2.21
elaps:  rhoofd           39       2.475      96.539     1.03
elaps:  cellXC           39       0.200       7.805     0.08
elaps:  vmat             39       2.487      96.998     1.04
elaps:  MolMec            2       0.000       0.000     0.00
elaps:  diagon           38     238.530    9064.152    97.04
elaps:  c-eigval       8899       0.465    4140.178    44.33
elaps:  c-buildHS      8899       0.004      31.445     0.34
elaps:  cdiag         17677       0.469    8286.966    88.72
elaps:  cdiag1        17677       0.021     376.693     4.03
elaps:  cdiag2        17677       0.153    2702.519    28.93
elaps:  cdiag3        17677       0.282    4988.115    53.40
elaps:  cdiag4        17677       0.007     124.908     1.34
elaps:  c-eigvec       8778       0.479    4205.396    45.02
elaps:  c-buildD       8778       0.088     770.617     8.25
elaps:  DHSCF4            1       3.522       3.522     0.04
elaps:  dfscf             1       3.332       3.332     0.04
elaps:  overfsm           1       0.031       0.031     0.00
elaps:  optical           1       0.000       0.000     0.00
  
>> End of run:   7-MAY-2016   8:32:42
