Siesta Version:                                        siesta-3.2-pl-3
Architecture  : x86_64-unknown-linux-gnu--unknown
Compiler flags: mpiifort -g -O2 -fPIC -xSSE4.1 -fp-model source -shared-intel 
PARALLEL version

* Running on   12 nodes in parallel
>> Start of run:   6-APR-2016  13:43:39

                           ***********************       
                           *  WELCOME TO SIESTA  *       
                           ***********************       

reinit: Reading from standard input
************************** Dump of input data file ****************************
#(1) General system descriptors
SystemName            GRP_doping    # Descriptive name of the system
SystemLabel           GRP_doping    # Short name for naming files
%include STRUCT.fdf
%include KPT.fdf
%include BASIS.fdf
#%include TS.fdf # for transiesta calculation
#(4) DFT, Grid, SCF
XC.functional         GGA           # LDA or GGA (default = LDA)
XC.authors            PBE           # CA (Ceperley-Aldr) = PZ
                                    #    (Perdew-Zunger) - LDA - Default
                                    # PW92 (Perdew-Wang-92) - LDA
                                    # PBE (Perdew-Burke-Ernzerhof) - GGA
MeshCutoff            200.000000    Ry      # Default: 50.0 Ry ~ 0.444 Bohr
                                    #         100.0 Ry ~ 0.314 Bohr
MaxSCFIterations      500           # Default: 50
DM.MixingWeight       0.05          # Default: 0.25
DM.NumberPulay        10            # Default: 0
DM.PulayOnFile        F             # SystemLabel.P1, SystemLabel.P2
DM.Tolerance          1.d-4         # Default: 1.d-4
DM.UseSaveDM          .true.        # because of the bug
SCFMustConverge       .true.
NeglNonOverlapInt     F             # Default: F
Diag.ParallelOverK    .true.
#(5) Eigenvalue problem: order-N or diagonalization
SolutionMethod        Diagon        # or Transiesta
ElectronicTemperature 300.0 K       # Default: 300.0 K
#(6) Molecular dynamics and relaxations
#MD.TypeOfRun          CG            # Type of dynamics:
#MD.VariableCell       F
#MD.NumCGsteps         0           # 0 for single-point / 100 for gopt
#MD.MaxCGDispl         0.2 Bohr      # Default: 0.2 Bohr
#MD.MaxForceTol        0.02 eV/Ang   # Default: 0.04 eV/Ang
#MD.MaxStressTol       1.0 GPa       # Default: 1.0 GPa
************************** End of input data file *****************************

reinit: -----------------------------------------------------------------------
reinit: System Name: GRP_doping
reinit: -----------------------------------------------------------------------
reinit: System Label: GRP_doping                                                  
reinit: -----------------------------------------------------------------------

initatom: Reading input for the pseudopotentials and atomic orbitals ----------
 Species number:            1  Label: C Atomic number:           6
 Species number:            2  Label: B Atomic number:           5
Ground state valence configuration:   2s02  2p02
Reading pseudopotential information in formatted form from C.psf

Valence configuration for pseudopotential generation:
2s( 2.00) rc: 1.54
2p( 2.00) rc: 1.54
3d( 0.00) rc: 1.54
4f( 0.00) rc: 1.54
Ground state valence configuration:   2s02  2p01
Reading pseudopotential information in formatted form from B.psf

Valence configuration for pseudopotential generation:
2s( 2.00) rc: 1.74
2p( 1.00) rc: 1.74
3d( 0.00) rc: 1.74
4f( 0.00) rc: 1.74
For C, standard SIESTA heuristics set lmxkb to 3
 (one more than the basis l, including polarization orbitals).
Use PS.lmax or PS.KBprojectors blocks to override.
For B, standard SIESTA heuristics set lmxkb to 3
 (one more than the basis l, including polarization orbitals).
Use PS.lmax or PS.KBprojectors blocks to override.

<basis_specs>
===============================================================================
C                    Z=   6    Mass=  12.010        Charge= 0.17977+309
Lmxo=1 Lmxkb= 3    BasisType=split      Semic=F
L=0  Nsemic=0  Cnfigmx=2
          n=1  nzeta=2  polorb=0
            splnorm:   0.15000    
               vcte:    0.0000    
               rinn:    0.0000    
                rcs:    0.0000      0.0000    
            lambdas:    1.0000      1.0000    
L=1  Nsemic=0  Cnfigmx=2
          n=1  nzeta=2  polorb=1
            splnorm:   0.15000    
               vcte:    0.0000    
               rinn:    0.0000    
                rcs:    0.0000      0.0000    
            lambdas:    1.0000      1.0000    
-------------------------------------------------------------------------------
L=0  Nkbl=1  erefs: 0.17977+309
L=1  Nkbl=1  erefs: 0.17977+309
L=2  Nkbl=1  erefs: 0.17977+309
L=3  Nkbl=1  erefs: 0.17977+309
===============================================================================
</basis_specs>

atom: Called for C                     (Z =   6)

read_vps: Pseudopotential generation method:
read_vps: ATM3      Troullier-Martins                       
Total valence charge:    4.00000

read_vps: Pseudopotential includes a core correction:
read_vps: Pseudo-core for xc-correction

xc_check: Exchange-correlation functional:
xc_check: GGA Perdew, Burke & Ernzerhof 1996
V l=0 = -2*Zval/r beyond r=  1.5227
V l=1 = -2*Zval/r beyond r=  1.5227
V l=2 = -2*Zval/r beyond r=  1.5227
V l=3 = -2*Zval/r beyond r=  1.5038
All V_l potentials equal beyond r=  1.5227
This should be close to max(r_c) in ps generation
All pots = -2*Zval/r beyond r=  1.5227

VLOCAL1: 99.0% of the norm of Vloc inside     18.722 Ry
VLOCAL1: 99.9% of the norm of Vloc inside     42.668 Ry
atom: Maximum radius for 4*pi*r*r*local-pseudopot. charge    1.83678
atom: Maximum radius for r*vlocal+2*Zval:    1.58088
GHOST: No ghost state for L =  0
GHOST: No ghost state for L =  1
GHOST: No ghost state for L =  2
GHOST: No ghost state for L =  3

KBgen: Kleinman-Bylander projectors: 
   l= 0   rc=  1.704034   el= -1.009801   Ekb=  5.335044   kbcos=  0.316824
   l= 1   rc=  1.704034   el= -0.388707   Ekb= -3.785862   kbcos= -0.366464
   l= 2   rc=  1.791422   el=  0.001971   Ekb= -0.970471   kbcos= -0.009212
   l= 3   rc=  1.859892   el=  0.003065   Ekb= -0.399525   kbcos= -0.001223

KBgen: Total number of  Kleinman-Bylander projectors:   16
atom: -------------------------------------------------------------------------

atom: SANKEY-TYPE ORBITALS:
atom: Selected multiple-zeta basis: split     

SPLIT: Orbitals with angular momentum L= 0

SPLIT: Basis orbitals for state 2s

SPLIT: PAO cut-off radius determined from an
SPLIT: energy shift=  0.007350 Ry

   izeta = 1
                 lambda =    1.000000
                     rc =    4.632753
                 energy =   -1.002270
                kinetic =    0.855760
    potential(screened) =   -1.858031
       potential(ionic) =   -5.417575

   izeta = 2
                 rmatch =    3.431921
              splitnorm =    0.150000
                 energy =   -0.867111
                kinetic =    1.300804
    potential(screened) =   -2.167915
       potential(ionic) =   -5.962684

SPLIT: Orbitals with angular momentum L= 1

SPLIT: Basis orbitals for state 2p

SPLIT: PAO cut-off radius determined from an
SPLIT: energy shift=  0.007350 Ry

   izeta = 1
                 lambda =    1.000000
                     rc =    5.658549
                 energy =   -0.381140
                kinetic =    2.399701
    potential(screened) =   -2.780841
       potential(ionic) =   -6.206085

   izeta = 2
                 rmatch =    3.653288
              splitnorm =    0.150000
                 energy =   -0.249149
                kinetic =    3.542762
    potential(screened) =   -3.791911
       potential(ionic) =   -7.581078

POLgen: Perturbative polarization orbital with L=  2

POLgen: Polarization orbital for state 2p

   izeta = 1
                     rc =    5.658549
                 energy =    1.109913
                kinetic =    2.304789
    potential(screened) =   -1.194876
       potential(ionic) =   -4.013592
atom: Total number of Sankey-type orbitals: 13

atm_pop: Valence configuration (for local Pseudopot. screening):
 2s( 2.00)                                                            
 2p( 2.00)                                                            
Vna: chval, zval:    4.00000   4.00000

Vna:  Cut-off radius for the neutral-atom potential:   5.658549
comcore: Pseudo-core radius Rcore=  1.791422

atom: _________________________________________________________________________

<basis_specs>
===============================================================================
B                    Z=   5    Mass=  10.810        Charge= 0.17977+309
Lmxo=1 Lmxkb= 3    BasisType=split      Semic=F
L=0  Nsemic=0  Cnfigmx=2
          n=1  nzeta=2  polorb=0
            splnorm:   0.15000    
               vcte:    0.0000    
               rinn:    0.0000    
                rcs:    0.0000      0.0000    
            lambdas:    1.0000      1.0000    
L=1  Nsemic=0  Cnfigmx=2
          n=1  nzeta=2  polorb=1
            splnorm:   0.15000    
               vcte:    0.0000    
               rinn:    0.0000    
                rcs:    0.0000      0.0000    
            lambdas:    1.0000      1.0000    
-------------------------------------------------------------------------------
L=0  Nkbl=1  erefs: 0.17977+309
L=1  Nkbl=1  erefs: 0.17977+309
L=2  Nkbl=1  erefs: 0.17977+309
L=3  Nkbl=1  erefs: 0.17977+309
===============================================================================
</basis_specs>

atom: Called for B                     (Z =   5)

read_vps: Pseudopotential generation method:
read_vps: ATM3      Troullier-Martins                       
Total valence charge:    3.00000

read_vps: Pseudopotential includes a core correction:
read_vps: Pseudo-core for xc-correction

xc_check: Exchange-correlation functional:
xc_check: GGA Perdew, Burke & Ernzerhof 1996
V l=0 = -2*Zval/r beyond r=  1.7165
V l=1 = -2*Zval/r beyond r=  1.7165
V l=2 = -2*Zval/r beyond r=  1.7165
V l=3 = -2*Zval/r beyond r=  1.6951
All V_l potentials equal beyond r=  1.7165
This should be close to max(r_c) in ps generation
All pots = -2*Zval/r beyond r=  1.7165

VLOCAL1: 99.0% of the norm of Vloc inside     14.733 Ry
VLOCAL1: 99.9% of the norm of Vloc inside     33.577 Ry
atom: Maximum radius for 4*pi*r*r*local-pseudopot. charge    2.04484
atom: Maximum radius for r*vlocal+2*Zval:    1.75994
GHOST: No ghost state for L =  0
GHOST: No ghost state for L =  1
GHOST: No ghost state for L =  2
GHOST: No ghost state for L =  3

KBgen: Kleinman-Bylander projectors: 
   l= 0   rc=  1.897051   el= -0.693730   Ekb=  4.595746   kbcos=  0.286105
   l= 1   rc=  1.920920   el= -0.265236   Ekb= -2.350715   kbcos= -0.315747
   l= 2   rc=  2.044840   el=  0.002055   Ekb= -0.690767   kbcos= -0.013822
   l= 3   rc=  2.149707   el=  0.003188   Ekb= -0.315358   kbcos= -0.002055

KBgen: Total number of  Kleinman-Bylander projectors:   16
atom: -------------------------------------------------------------------------

atom: SANKEY-TYPE ORBITALS:
atom: Selected multiple-zeta basis: split     

SPLIT: Orbitals with angular momentum L= 0

SPLIT: Basis orbitals for state 2s

SPLIT: PAO cut-off radius determined from an
SPLIT: energy shift=  0.007350 Ry

   izeta = 1
                 lambda =    1.000000
                     rc =    5.422032
                 energy =   -0.686029
                kinetic =    0.576707
    potential(screened) =   -1.262736
       potential(ionic) =   -3.271094

   izeta = 2
                 rmatch =    4.222573
              splitnorm =    0.150000
                 energy =   -0.602132
                kinetic =    0.858975
    potential(screened) =   -1.461107
       potential(ionic) =   -3.582536

SPLIT: Orbitals with angular momentum L= 1

SPLIT: Basis orbitals for state 2p

SPLIT: PAO cut-off radius determined from an
SPLIT: energy shift=  0.007350 Ry

   izeta = 1
                 lambda =    1.000000
                     rc =    6.790259
                 energy =   -0.258578
                kinetic =    1.481412
    potential(screened) =   -1.739989
       potential(ionic) =   -3.657461

   izeta = 2
                 rmatch =    4.608740
              splitnorm =    0.150000
                 energy =   -0.173757
                kinetic =    2.186690
    potential(screened) =   -2.360447
       potential(ionic) =   -4.464260

POLgen: Perturbative polarization orbital with L=  2

POLgen: Polarization orbital for state 2p

   izeta = 1
                     rc =    6.790259
                 energy =    0.684082
                kinetic =    1.471481
    potential(screened) =   -0.787399
       potential(ionic) =   -2.406985
atom: Total number of Sankey-type orbitals: 13

atm_pop: Valence configuration (for local Pseudopot. screening):
 2s( 2.00)                                                            
 2p( 1.00)                                                            
Vna: chval, zval:    3.00000   3.00000

Vna:  Cut-off radius for the neutral-atom potential:   6.790259
comcore: Pseudo-core radius Rcore=  2.122997

atom: _________________________________________________________________________

prinput: Basis input ----------------------------------------------------------

PAO.BasisType split     

%block ChemicalSpeciesLabel
    1    6 C                       # Species index, atomic number, species label
    2    5 B                       # Species index, atomic number, species label
%endblock ChemicalSpeciesLabel

%block PAO.Basis                 # Define Basis set
C                     2                    # Species label, number of l-shells
 n=2   0   2                         # n, l, Nzeta 
   4.633      3.432   
   1.000      1.000   
 n=2   1   2 P   1                   # n, l, Nzeta, Polarization, NzetaPol
   5.659      3.653   
   1.000      1.000   
B                     2                    # Species label, number of l-shells
 n=2   0   2                         # n, l, Nzeta 
   5.422      4.223   
   1.000      1.000   
 n=2   1   2 P   1                   # n, l, Nzeta, Polarization, NzetaPol
   6.790      4.609   
   1.000      1.000   
%endblock PAO.Basis

prinput: ----------------------------------------------------------------------

coor:   Atomic-coordinates input format  =     Cartesian coordinates
coor:                                          (in Angstroms)

siesta: Atomic coordinates (Bohr) and species
siesta:      2.23554   1.32097   0.00000  1        1
siesta:      4.56367   2.66461   0.00000  1        2
siesta:     32.50328  21.48508   0.00000  1        3
siesta:     34.83141  22.82873   0.00000  1        4
siesta:     34.83116  17.45226   0.00000  1        5
siesta:     32.50291  13.41944   0.00000  1        6
siesta:     34.83104  14.76308   0.00000  1        7
siesta:     30.17465   9.38661   0.00000  1        8
siesta:     32.50278  10.73026   0.00000  1        9
siesta:     27.84639   5.35379   0.00000  1       10
siesta:     30.17453   6.69743   0.00000  1       11
siesta:     27.84714  21.48508   0.00000  1       12
siesta:     30.17527  22.82873   0.00000  1       13
siesta:      6.89168   1.32097   0.00000  1       14
siesta:      9.21981   2.66461   0.00000  1       15
siesta:     13.87595   2.66461   0.00000  1       16
siesta:     16.20396   1.32097   0.00000  1       17
siesta:     18.53210   2.66461   0.00000  1       18
siesta:     23.19013   2.66461   0.00000  1       19
siesta:     25.51813   1.32097   0.00000  1       20
siesta:     27.84627   2.66461   0.00000  1       21
siesta:      6.89193   6.69743   0.00000  1       22
siesta:      9.21994   5.35379   0.00000  1       23
siesta:     11.54807   6.69743   0.00000  1       24
siesta:     13.87608   5.35379   0.00000  1       25
siesta:     16.20421   6.69743   0.00000  1       26
siesta:     18.53411   5.35379   0.00000  1       27
siesta:     20.86224   6.69743   0.00000  1       28
siesta:     23.19025   5.35379   0.00000  1       29
siesta:     25.51838   6.69743   0.00000  1       30
siesta:      9.22019  10.73026   0.00000  1       31
siesta:     11.54820   9.38661   0.00000  1       32
siesta:     13.87633  10.73026   0.00000  1       33
siesta:     18.53247  10.73026   0.00000  1       34
siesta:     20.86237   9.38661   0.00000  1       35
siesta:     23.19050  10.73026   0.00000  1       36
siesta:      9.22031  13.41944   0.00000  1       37
siesta:     11.54845  14.76308   0.00000  1       38
siesta:     13.87645  13.41944   0.00000  1       39
siesta:     16.20459  14.76308   0.00000  1       40
siesta:     18.53448  13.41944   0.00000  1       41
siesta:     20.86262  14.76308   0.00000  1       42
siesta:     13.87670  18.79590   0.00000  1       43
siesta:     16.20471  17.45226   0.00000  1       44
siesta:     18.53284  18.79590   0.00000  1       45
siesta:     13.87683  21.48508   0.00000  1       46
siesta:     16.20496  22.82873   0.00000  1       47
siesta:     18.53486  21.48508   0.00000  1       48
siesta:     20.86299  22.82873   0.00000  1       49
siesta:     27.84664  10.73026   0.00000  1       50
siesta:     23.19063  13.41944   0.00000  1       51
siesta:     25.51876  14.76308   0.00000  1       52
siesta:     23.19088  18.79590   0.00000  1       53
siesta:     27.84677  13.41944   0.00000  1       54
siesta:     30.17490  14.76308   0.00000  1       55
siesta:     25.51888  17.45226   0.00000  1       56
siesta:     27.84702  18.79590   0.00000  1       57
siesta:     23.19100  21.48508   0.00000  1       58
siesta:     25.51913  22.82873   0.00000  1       59
siesta:     30.17503  17.45226   0.00000  1       60
siesta:     32.50316  18.79590   0.00000  1       61
siesta:     37.16131  21.48508   0.00000  1       62
siesta:     39.48945  22.82873   0.00000  1       63
siesta:     37.15930  18.79590   0.00000  2       64
siesta:     11.54782   1.32097   0.00000  2       65
siesta:     20.86199   1.32097   0.00000  2       66
siesta:      4.56380   5.35379   0.00000  2       67
siesta:      6.89205   9.38661   0.00000  2       68
siesta:     16.20434   9.38661   0.00000  2       69
siesta:     11.54857  17.45226   0.00000  2       70
siesta:     25.51851   9.38661   0.00000  2       71
siesta:     20.86274  17.45226   0.00000  2       72

siesta: System type = slab      

initatomlists: Number of atoms, orbitals, and projectors:     72   936  1152

siesta: ******************** Simulation parameters ****************************
siesta:
siesta: The following are some of the parameters of the simulation.
siesta: A complete list of the parameters used, including default values,
siesta: can be found in file out.fdf
siesta:
redata: Non-Collinear-spin run           =     F
redata: SpinPolarized (Up/Down) run      =     F
redata: Number of spin components        =     1
redata: Long output                      =     F
redata: Number of Atomic Species         =        2
redata: Charge density info will appear in .RHO file
redata: Write Mulliken Pop.              =     NO
redata: Mesh Cutoff                      =   200.0000  Ry
redata: Net charge of the system         =     0.0000 |e|
redata: Max. number of SCF Iter          =      500
redata: SCF convergence failure will abort job
redata: Performing Pulay mixing using    =    10 iterations
redata: Mix DM in first SCF step ?       =     F
redata: Write Pulay info on disk?        =     F
redata: Discard 1st Pulay DM after  kick =     F
redata: New DM Mixing Weight             =     0.0500
redata: New DM Occupancy tolerance       = 0.000000000001
redata: No kicks to SCF
redata: DM Mixing Weight for Kicks       =     0.5000
redata: DM Tolerance for SCF             =     0.000100
redata: Require Energy convergence for SCF =     F
redata: DM Energy tolerance for SCF      =     0.000100 eV
redata: Require Harris convergence for SCF =     F
redata: DM Harris energy tolerance for SCF =     0.000100 eV
redata: Using Saved Data (generic)   =     F
redata: Use continuation files for DM    =     T
redata: Neglect nonoverlap interactions  =     F
redata: Method of Calculation            =     Diagonalization
redata: Divide and Conquer               =     T
redata: Electronic Temperature           =     0.0019  Ry
redata: Fix the spin of the system       =     F
redata: Dynamics option                  =     Verlet MD run
redata: Initial MD time step             =        1
redata:   Final MD time step             =        1
redata: Length of MD time step           =     1.0000  fs
redata: Initial Temperature of MD run    =     0.0000  K
redata: Perform a MD quench              =     F
redata: ***********************************************************************
Total number of electrons:   279.000000
Total ionic charge:   279.000000

* ProcessorY, Blocksize:    3  24

k-point displ. along   1 input, could be:     0.50    0.00
k-point displ. along   2 input, could be:     0.50    0.00
 Kpoints in:          231 . Kpoints trimmed:          231

siesta: k-grid: Number of k-points =   231
siesta: k-grid: Cutoff (effective) =     5.000 Ang
siesta: k-grid: Supercell and displacements
siesta: k-grid:   21   0   0      0.500
siesta: k-grid:    0  21   0      0.500
siesta: k-grid:    0   0   1      0.000
Naive supercell factors:     2    2    2

superc: Internal auxiliary supercell:     2 x     2 x     2  =       8
superc: Number of atoms, orbitals, and projectors:    576   7488   9216

* Maximum dynamic memory allocated =     4 MB

siesta:                 ==============================
                            Begin MD step =      1
                        ==============================

superc: Internal auxiliary supercell:     2 x     2 x     2  =       8
superc: Number of atoms, orbitals, and projectors:    576   7488   9216

outcell: Unit cell vectors (Ang):
       14.785000    0.000000    0.000000
        7.393000   12.805052    0.000000
        0.000000    0.000000   10.000000

outcell: Cell vector modules (Ang)   :   14.785000   14.786000   10.000000
outcell: Cell angles (23,13,12) (deg):     90.0000     90.0000     60.0000
outcell: Cell volume (Ang**3)        :   1893.2269
New_DM. Step:     1
Initializing Density Matrix...

iodm: Reading Density Matrix from files

InitMesh: MESH =   120 x   120 x    90 =     1296000
InitMesh: Mesh cutoff (required, used) =   200.000   223.865 Ry

* Maximum dynamic memory allocated =   150 MB

stepf: Fermi-Dirac step function

siesta: Program's energy decomposition (eV):
siesta: Ebs     =     -3690.907388
siesta: Eions   =     17250.500670
siesta: Ena     =      3769.795895
siesta: Ekin    =      7406.562351
siesta: Enl     =      -691.247273
siesta: DEna    =      -341.565416
siesta: DUscf   =        36.582407
siesta: DUext   =         0.000000
siesta: Exc     =     -4073.581894
siesta: eta*DQ  =         0.000000
siesta: Emadel  =         0.000000
siesta: Emeta   =         0.000000
siesta: Emolmec =         0.000000
siesta: Ekinion =         0.000000
siesta: Eharris =    -11143.949973
siesta: Etot    =    -11143.954600
siesta: FreeEng =    -11143.954600

siesta: iscf   Eharris(eV)      E_KS(eV)   FreeEng(eV)   dDmax  Ef(eV)
siesta:    1   -11143.9500   -11143.9546   -11143.9546  0.0001 -5.9235
timer: Routine,Calls,Time,% = IterSCF        1    1133.182  98.78
elaps: Routine,Calls,Wall,% = IterSCF        1      98.746  98.78

siesta: E_KS(eV) =           -11143.9500

siesta: E_KS - E_eggbox =    -11143.9500

siesta: Atomic forces (eV/Ang):
----------------------------------------
   Tot    0.200929   -0.135809    0.000000
----------------------------------------
   Max    3.932023
   Res    1.247797    sqrt( Sum f_i^2 / 3N )
----------------------------------------
   Max    3.932023    constrained

Stress-tensor-Voigt (kbar):     -119.55     -118.39       -0.25        0.34        0.00        0.00
(Free)E + p*V (eV/cell)   -11050.1628
Target enthalpy (eV/cell)   -11143.9810

siesta: Stress tensor (static) (eV/Ang**3):
        -0.074615    0.000212    0.000000
         0.000212   -0.073892    0.000000
         0.000000    0.000000   -0.000157

siesta: Pressure (static):         79.39617662  kBar

siesta: Stress tensor (total) (eV/Ang**3):
        -0.074615    0.000212    0.000000
         0.000212   -0.073892    0.000000
         0.000000    0.000000   -0.000157

siesta: Pressure (total):         79.39617662  kBar

siesta: Temp_ion =       0.000 K

* Maximum dynamic memory allocated =   246 MB

siesta: Program's energy decomposition (eV):
siesta: Ebs     =     -3690.907388
siesta: Eions   =     17250.500670
siesta: Ena     =      3769.795895
siesta: Ekin    =      7406.599288
siesta: Enl     =      -691.272298
siesta: DEna    =      -341.572502
siesta: DUscf   =        36.584897
siesta: DUext   =         0.000000
siesta: Exc     =     -4073.584582
siesta: eta*DQ  =         0.000000
siesta: Emadel  =         0.000000
siesta: Emeta   =         0.000000
siesta: Emolmec =         0.000000
siesta: Ekinion =         0.000000
siesta: Eharris =    -11143.949973
siesta: Etot    =    -11143.949971
siesta: FreeEng =    -11143.980981

siesta: Final energy (eV):
siesta:  Band Struct. =   -3690.907388
siesta:       Kinetic =    7406.599288
siesta:       Hartree =   21697.669300
siesta:    Ext. field =       0.000000
siesta:   Exch.-corr. =   -4073.584582
siesta:  Ion-electron =  -50133.730727
siesta:       Ion-ion =   13959.096749
siesta:       Ekinion =       0.000000
siesta:         Total =  -11143.949971

siesta: Atomic forces (eV/Ang):
siesta:      1    0.662035   -0.381705    0.000000
siesta:      2   -0.495357   -3.932023    0.000000
siesta:      3   -0.244293   -0.213757    0.000000
siesta:      4    0.842552   -2.913528    0.000000
siesta:      5   -3.443591   -1.879520    0.000000
siesta:      6   -0.431917   -0.559723    0.000000
siesta:      7   -1.065292    1.065412    0.000000
siesta:      8   -0.702024    1.235162    0.000000
siesta:      9   -3.184279    2.035089    0.000000
siesta:     10   -0.288117    0.459097    0.000000
siesta:     11   -3.120972    1.207797    0.000000
siesta:     12   -0.374367   -0.367365    0.000000
siesta:     13    0.316182   -0.667010    0.000000
siesta:     14   -0.564344   -0.068292    0.000000
siesta:     15   -2.550654    1.515959    0.000000
siesta:     16    2.851710    1.488135    0.000000
siesta:     17    0.020306    1.518844    0.000000
siesta:     18   -2.742840    1.518098    0.000000
siesta:     19    2.810284    1.734425    0.000000
siesta:     20    0.447192    0.598903    0.000000
siesta:     21    0.042486   -0.357218    0.000000
siesta:     22    3.146074   -1.794746    0.000000
siesta:     23   -0.935299    0.053588    0.000000
siesta:     24    0.177067   -0.067059    0.000000
siesta:     25    1.133706   -0.338031    0.000000
siesta:     26   -0.031121   -3.199271    0.000000
siesta:     27   -0.945274   -0.386467    0.000000
siesta:     28   -0.160787    0.001534    0.000000
siesta:     29    0.851170   -0.606607    0.000000
siesta:     30   -0.113819   -3.444587    0.000000
siesta:     31    2.673108    2.117611    0.000000
siesta:     32    0.236011    1.062402    0.000000
siesta:     33   -2.727015    1.474857    0.000000
siesta:     34    2.786220    1.451685    0.000000
siesta:     35   -0.273066    1.021800    0.000000
siesta:     36   -2.623244    1.699646    0.000000
siesta:     37    1.747686   -1.145945    0.000000
siesta:     38    0.315051   -3.223574    0.000000
siesta:     39   -0.911315   -0.748244    0.000000
siesta:     40    0.150429   -0.269284    0.000000
siesta:     41    0.610991   -0.509555    0.000000
siesta:     42    0.162506   -3.110058    0.000000
siesta:     43    3.287253    1.273138    0.000000
siesta:     44    0.026844    1.363839    0.000000
siesta:     45   -2.755250    1.596967    0.000000
siesta:     46    0.754196   -0.359711    0.000000
siesta:     47   -0.179291    0.388346    0.000000
siesta:     48   -0.383108   -0.151403    0.000000
siesta:     49   -0.241688    0.250190    0.000000
siesta:     50    3.027504    1.579457    0.000000
siesta:     51   -1.219660   -0.692162    0.000000
siesta:     52    0.490890    0.271641    0.000000
siesta:     53    2.770368    1.882168    0.000000
siesta:     54    0.325700    0.073011    0.000000
siesta:     55   -0.128062    0.537160    0.000000
siesta:     56    0.204996    0.379094    0.000000
siesta:     57    0.252079   -0.268525    0.000000
siesta:     58    1.147859   -0.849787    0.000000
siesta:     59   -0.131906   -3.346571    0.000000
siesta:     60   -0.138549    0.046402    0.000000
siesta:     61   -0.454338   -0.772736    0.000000
siesta:     62   -1.076003    3.304318    0.000000
siesta:     63   -0.472723    0.481931    0.000000
siesta:     64   -3.351230    2.098250    0.000000
siesta:     65   -0.103921   -0.029917    0.000000
siesta:     66   -0.150378   -0.048605    0.000000
siesta:     67    0.392573   -0.085026    0.000000
siesta:     68    0.546043   -0.208650    0.000000
siesta:     69    0.014763   -0.001724    0.000000
siesta:     70    3.525626   -2.102967    0.000000
siesta:     71    0.130735    0.096838    0.000000
siesta:     72    0.035826    0.082750    0.000000
siesta: ----------------------------------------
siesta:    Tot    0.200929   -0.135809    0.000000

siesta: Stress tensor (static) (eV/Ang**3):
siesta:    -0.074615    0.000212    0.000000
siesta:     0.000212   -0.073892    0.000000
siesta:     0.000000    0.000000   -0.000157

siesta: Cell volume =       1893.226895 Ang**3

siesta: Pressure (static):
siesta:                Solid            Molecule  Units
siesta:           0.00053971          0.00090712  Ry/Bohr**3
siesta:           0.04955466          0.08328825  eV/Ang**3
siesta:          79.39617662        133.44393748  kBar
(Free)E+ p_basis*V_orbitals  =      -11110.399782
(Free)Eharris+ p_basis*V_orbitals  =      -11110.395154

siesta: Electric dipole (a.u.)  =    0.000000    0.000000    0.000000
siesta: Electric dipole (Debye) =    0.000000    0.000000    0.000000

* Maximum dynamic memory allocated : Node    0 =   246 MB
* Maximum dynamic memory allocated : Node    1 =   153 MB
* Maximum dynamic memory allocated : Node    2 =   155 MB
* Maximum dynamic memory allocated : Node    3 =   234 MB
* Maximum dynamic memory allocated : Node    4 =   241 MB
* Maximum dynamic memory allocated : Node    5 =   148 MB
* Maximum dynamic memory allocated : Node    6 =   149 MB
* Maximum dynamic memory allocated : Node    7 =   234 MB
* Maximum dynamic memory allocated : Node    8 =   240 MB
* Maximum dynamic memory allocated : Node    9 =   148 MB
* Maximum dynamic memory allocated : Node   10 =   150 MB
* Maximum dynamic memory allocated : Node   11 =   234 MB

* Maximum memory occured during cdiag                         

timer: CPU execution times:
timer:  Routine       Calls   Time/call    Tot.time        %
timer:  siesta            1    1281.112    1281.112   100.00
timer:  Setup             1       3.335       3.335     0.26
timer:  bands             1       0.010       0.010     0.00
timer:  writewave         1       0.022       0.022     0.00
timer:  KSV_init          1       0.002       0.002     0.00
timer:  IterMD            1    1271.497    1271.497    99.25
timer:  hsparse           1       0.283       0.283     0.02
timer:  overlap           1       6.071       6.071     0.47
timer:  IterSCF           1    1133.182    1133.182    88.45
timer:  kinefsm           2       3.092       6.184     0.48
timer:  nlefsm            2      19.572      39.143     3.06
timer:  DHSCF             2      96.290     192.581    15.03
timer:  DHSCF1            1       1.186       1.186     0.09
timer:  DHSCF2            1      33.254      33.254     2.60
timer:  REORD            18       0.002       0.041     0.00
timer:  POISON            3       0.666       1.999     0.16
timer:  DHSCF3            2      66.494     132.988    10.38
timer:  rhoofd            2      13.916      27.833     2.17
timer:  cellXC            2       2.789       5.577     0.44
timer:  vmat              2      32.897      65.795     5.14
timer:  MolMec            2       0.000       0.000     0.00
timer:  diagon            1     985.728     985.728    76.94
timer:  cdiag            40      17.066     656.501    51.24
timer:  cdiag1           40       0.895      34.445     2.69
timer:  cdiag2           40       3.111     119.807     9.35
timer:  cdiag3           40      12.863     494.671    38.61
timer:  cdiag4           40       0.193       7.422     0.58
timer:  DHSCF4            1      25.106      25.106     1.96
timer:  dfscf             1      23.076      23.076     1.80
timer:  overfsm           1       0.301       0.301     0.02
timer:  optical           1       5.621       5.621     0.44
  

elaps: ELAPSED times:
elaps:  Routine       Calls   Time/call    Tot.time        %
elaps:  siesta            1     111.638     111.638   100.00
elaps:  Setup             1       0.291       0.291     0.26
elaps:  bands             1       0.001       0.001     0.00
elaps:  writewave         1       0.002       0.002     0.00
elaps:  KSV_init          1       0.000       0.000     0.00
elaps:  IterMD            1     110.799     110.799    99.25
elaps:  hsparse           1       0.028       0.028     0.02
elaps:  overlap           1       0.770       0.770     0.69
elaps:  IterSCF           1      98.746      98.746    88.45
elaps:  kinefsm           2       0.379       0.757     0.68
elaps:  nlefsm            2       1.640       3.281     2.94
elaps:  DHSCF             2       9.338      18.677    16.73
elaps:  DHSCF1            1       0.101       0.101     0.09
elaps:  DHSCF2            1       2.899       2.899     2.60
elaps:  REORD            18       0.000       0.005     0.00
elaps:  POISON            3       0.061       0.183     0.16
elaps:  DHSCF3            2       5.796      11.592    10.38
elaps:  rhoofd            2       2.050       4.100     3.67
elaps:  cellXC            2       0.243       0.486     0.44
elaps:  vmat              2       2.866       5.733     5.14
elaps:  MolMec            2       0.000       0.000     0.00
elaps:  diagon            1      85.897      85.897    76.94
elaps:  cdiag            40       1.469      58.748    52.62
elaps:  cdiag1           40       0.083       3.331     2.98
elaps:  cdiag2           40       0.284      11.357    10.17
elaps:  cdiag3           40       1.082      43.295    38.78
elaps:  cdiag4           40       0.019       0.744     0.67
elaps:  DHSCF4            1       4.081       4.081     3.66
elaps:  dfscf             1       3.835       3.835     3.44
elaps:  overfsm           1       0.032       0.032     0.03
elaps:  optical           1       0.000       0.000     0.00
  
>> End of run:   6-APR-2016  13:45:31
