Siesta Version:                                        siesta-3.2-pl-3
Architecture  : x86_64-unknown-linux-gnu--unknown
Compiler flags: mpiifort -g -O2 -fPIC -xSSE4.1 -fp-model source -shared-intel 
PARALLEL version

* Running on    8 nodes in parallel
>> Start of run:   8-MAY-2016   2:07:53

                           ***********************       
                           *  WELCOME TO SIESTA  *       
                           ***********************       

reinit: Reading from standard input
************************** Dump of input data file ****************************
#(1) General system descriptors
SystemName            GRP_doping    # Descriptive name of the system
SystemLabel           GRP_doping    # Short name for naming files
%include STRUCT.fdf
%include KPT.fdf
%include BASIS.fdf
#%include TS.fdf # for transiesta calculation
#(4) DFT, Grid, SCF
XC.functional         GGA           # LDA or GGA (default = LDA)
XC.authors            PBE           # CA (Ceperley-Aldr) = PZ
                                    #    (Perdew-Zunger) - LDA - Default
                                    # PW92 (Perdew-Wang-92) - LDA
                                    # PBE (Perdew-Burke-Ernzerhof) - GGA
MeshCutoff            200.000000    Ry      # Default: 50.0 Ry ~ 0.444 Bohr
                                    #         100.0 Ry ~ 0.314 Bohr
MaxSCFIterations      500           # Default: 50
DM.MixingWeight       0.05          # Default: 0.25
DM.NumberPulay        10            # Default: 0
DM.PulayOnFile        F             # SystemLabel.P1, SystemLabel.P2
DM.Tolerance          1.d-4         # Default: 1.d-4
DM.UseSaveDM          .true.        # because of the bug
SCFMustConverge       .true.
NeglNonOverlapInt     F             # Default: F
#(5) Eigenvalue problem: order-N or diagonalization
SolutionMethod        Diagon        # or Transiesta
ElectronicTemperature 300.0 K       # Default: 300.0 K
#(6) Molecular dynamics and relaxations
#MD.TypeOfRun          CG            # Type of dynamics:
#MD.VariableCell       F
#MD.NumCGsteps         0           # 0 for single-point / 100 for gopt
#MD.MaxCGDispl         0.2 Bohr      # Default: 0.2 Bohr
#MD.MaxForceTol        0.02 eV/Ang   # Default: 0.04 eV/Ang
#MD.MaxStressTol       1.0 GPa       # Default: 1.0 GPa
# Geometry Constraints
#%block GeometryConstraints
#	position from 1 to 44
#%endblock GeometryConstraints
BandLinesScale   pi/a
%block BandLines
 1   0.00000000  0.00000000  0.00000000
50   0.00000000  0.07809418  0.00000000
50   0.04509075  0.07809242  0.00000000
20   0.00000000  0.00000000  0.00000000
%endblock BandLines
************************** End of input data file *****************************

reinit: -----------------------------------------------------------------------
reinit: System Name: GRP_doping
reinit: -----------------------------------------------------------------------
reinit: System Label: GRP_doping                                                  
reinit: -----------------------------------------------------------------------

initatom: Reading input for the pseudopotentials and atomic orbitals ----------
 Species number:            1  Label: N Atomic number:           7
 Species number:            2  Label: C Atomic number:           6
Ground state valence configuration:   2s02  2p03
Reading pseudopotential information in formatted form from N.psf

Valence configuration for pseudopotential generation:
2s( 2.00) rc: 1.48
2p( 3.00) rc: 1.48
3d( 0.00) rc: 1.48
4f( 0.00) rc: 1.48
Ground state valence configuration:   2s02  2p02
Reading pseudopotential information in formatted form from C.psf

Valence configuration for pseudopotential generation:
2s( 2.00) rc: 1.54
2p( 2.00) rc: 1.54
3d( 0.00) rc: 1.54
4f( 0.00) rc: 1.54
For N, standard SIESTA heuristics set lmxkb to 3
 (one more than the basis l, including polarization orbitals).
Use PS.lmax or PS.KBprojectors blocks to override.
For C, standard SIESTA heuristics set lmxkb to 3
 (one more than the basis l, including polarization orbitals).
Use PS.lmax or PS.KBprojectors blocks to override.

<basis_specs>
===============================================================================
N                    Z=   7    Mass=  14.010        Charge= 0.17977+309
Lmxo=1 Lmxkb= 3    BasisType=split      Semic=F
L=0  Nsemic=0  Cnfigmx=2
          n=1  nzeta=2  polorb=0
            splnorm:   0.15000    
               vcte:    0.0000    
               rinn:    0.0000    
                rcs:    0.0000      0.0000    
            lambdas:    1.0000      1.0000    
L=1  Nsemic=0  Cnfigmx=2
          n=1  nzeta=2  polorb=1
            splnorm:   0.15000    
               vcte:    0.0000    
               rinn:    0.0000    
                rcs:    0.0000      0.0000    
            lambdas:    1.0000      1.0000    
-------------------------------------------------------------------------------
L=0  Nkbl=1  erefs: 0.17977+309
L=1  Nkbl=1  erefs: 0.17977+309
L=2  Nkbl=1  erefs: 0.17977+309
L=3  Nkbl=1  erefs: 0.17977+309
===============================================================================
</basis_specs>

atom: Called for N                     (Z =   7)

read_vps: Pseudopotential generation method:
read_vps: ATM3      Troullier-Martins                       
Total valence charge:    5.00000

read_vps: Pseudopotential includes a core correction:
read_vps: Pseudo-core for xc-correction

xc_check: Exchange-correlation functional:
xc_check: GGA Perdew, Burke & Ernzerhof 1996
V l=0 = -2*Zval/r beyond r=  1.4606
V l=1 = -2*Zval/r beyond r=  1.4606
V l=2 = -2*Zval/r beyond r=  1.4606
V l=3 = -2*Zval/r beyond r=  1.4606
All V_l potentials equal beyond r=  1.4606
This should be close to max(r_c) in ps generation
All pots = -2*Zval/r beyond r=  1.4606

VLOCAL1: 99.0% of the norm of Vloc inside     20.347 Ry
VLOCAL1: 99.9% of the norm of Vloc inside     46.372 Ry
atom: Maximum radius for 4*pi*r*r*local-pseudopot. charge    1.76189
atom: Maximum radius for r*vlocal+2*Zval:    1.53550
GHOST: No ghost state for L =  0
GHOST: No ghost state for L =  1
GHOST: No ghost state for L =  2
GHOST: No ghost state for L =  3

KBgen: Kleinman-Bylander projectors: 
   l= 0   rc=  1.634559   el= -1.363963   Ekb=  5.296955   kbcos=  0.335621
   l= 1   rc=  1.614250   el= -0.521451   Ekb= -5.259161   kbcos= -0.433408
   l= 2   rc=  1.718383   el=  0.001991   Ekb= -1.271464   kbcos= -0.007566
   l= 3   rc=  1.761893   el=  0.003093   Ekb= -0.494769   kbcos= -0.001015

KBgen: Total number of  Kleinman-Bylander projectors:   16
atom: -------------------------------------------------------------------------

atom: SANKEY-TYPE ORBITALS:
atom: Selected multiple-zeta basis: split     

SPLIT: Orbitals with angular momentum L= 0

SPLIT: Basis orbitals for state 2s

SPLIT: PAO cut-off radius determined from an
SPLIT: energy shift=  0.007350 Ry

   izeta = 1
                 lambda =    1.000000
                     rc =    4.071465
                 energy =   -1.356470
                kinetic =    1.176977
    potential(screened) =   -2.533447
       potential(ionic) =   -8.057990

   izeta = 2
                 rmatch =    2.905100
              splitnorm =    0.150000
                 energy =   -1.158343
                kinetic =    1.813009
    potential(screened) =   -2.971352
       potential(ionic) =   -8.901931

SPLIT: Orbitals with angular momentum L= 1

SPLIT: Basis orbitals for state 2p

SPLIT: PAO cut-off radius determined from an
SPLIT: energy shift=  0.007350 Ry

   izeta = 1
                 lambda =    1.000000
                     rc =    4.972977
                 energy =   -0.513884
                kinetic =    3.441732
    potential(screened) =   -3.955616
       potential(ionic) =   -9.287901

   izeta = 2
                 rmatch =    3.054066
              splitnorm =    0.150000
                 energy =   -0.318226
                kinetic =    5.125348
    potential(screened) =   -5.443573
       potential(ionic) =  -11.380999

POLgen: Perturbative polarization orbital with L=  2

POLgen: Polarization orbital for state 2p

   izeta = 1
                     rc =    4.972977
                 energy =    1.607437
                kinetic =    3.268125
    potential(screened) =   -1.660688
       potential(ionic) =   -5.973652
atom: Total number of Sankey-type orbitals: 13

atm_pop: Valence configuration (for local Pseudopot. screening):
 2s( 2.00)                                                            
 2p( 3.00)                                                            
Vna: chval, zval:    5.00000   5.00000

Vna:  Cut-off radius for the neutral-atom potential:   4.972977
comcore: Pseudo-core radius Rcore=  1.554824

atom: _________________________________________________________________________

<basis_specs>
===============================================================================
C                    Z=   6    Mass=  12.010        Charge= 0.17977+309
Lmxo=1 Lmxkb= 3    BasisType=split      Semic=F
L=0  Nsemic=0  Cnfigmx=2
          n=1  nzeta=2  polorb=0
            splnorm:   0.15000    
               vcte:    0.0000    
               rinn:    0.0000    
                rcs:    0.0000      0.0000    
            lambdas:    1.0000      1.0000    
L=1  Nsemic=0  Cnfigmx=2
          n=1  nzeta=2  polorb=1
            splnorm:   0.15000    
               vcte:    0.0000    
               rinn:    0.0000    
                rcs:    0.0000      0.0000    
            lambdas:    1.0000      1.0000    
-------------------------------------------------------------------------------
L=0  Nkbl=1  erefs: 0.17977+309
L=1  Nkbl=1  erefs: 0.17977+309
L=2  Nkbl=1  erefs: 0.17977+309
L=3  Nkbl=1  erefs: 0.17977+309
===============================================================================
</basis_specs>

atom: Called for C                     (Z =   6)

read_vps: Pseudopotential generation method:
read_vps: ATM3      Troullier-Martins                       
Total valence charge:    4.00000

read_vps: Pseudopotential includes a core correction:
read_vps: Pseudo-core for xc-correction

xc_check: Exchange-correlation functional:
xc_check: GGA Perdew, Burke & Ernzerhof 1996
V l=0 = -2*Zval/r beyond r=  1.5227
V l=1 = -2*Zval/r beyond r=  1.5227
V l=2 = -2*Zval/r beyond r=  1.5227
V l=3 = -2*Zval/r beyond r=  1.5038
All V_l potentials equal beyond r=  1.5227
This should be close to max(r_c) in ps generation
All pots = -2*Zval/r beyond r=  1.5227

VLOCAL1: 99.0% of the norm of Vloc inside     18.722 Ry
VLOCAL1: 99.9% of the norm of Vloc inside     42.668 Ry
atom: Maximum radius for 4*pi*r*r*local-pseudopot. charge    1.83678
atom: Maximum radius for r*vlocal+2*Zval:    1.58088
GHOST: No ghost state for L =  0
GHOST: No ghost state for L =  1
GHOST: No ghost state for L =  2
GHOST: No ghost state for L =  3

KBgen: Kleinman-Bylander projectors: 
   l= 0   rc=  1.704034   el= -1.009801   Ekb=  5.335044   kbcos=  0.316824
   l= 1   rc=  1.704034   el= -0.388707   Ekb= -3.785862   kbcos= -0.366464
   l= 2   rc=  1.791422   el=  0.001971   Ekb= -0.970471   kbcos= -0.009212
   l= 3   rc=  1.859892   el=  0.003065   Ekb= -0.399525   kbcos= -0.001223

KBgen: Total number of  Kleinman-Bylander projectors:   16
atom: -------------------------------------------------------------------------

atom: SANKEY-TYPE ORBITALS:
atom: Selected multiple-zeta basis: split     

SPLIT: Orbitals with angular momentum L= 0

SPLIT: Basis orbitals for state 2s

SPLIT: PAO cut-off radius determined from an
SPLIT: energy shift=  0.007350 Ry

   izeta = 1
                 lambda =    1.000000
                     rc =    4.632753
                 energy =   -1.002270
                kinetic =    0.855760
    potential(screened) =   -1.858031
       potential(ionic) =   -5.417575

   izeta = 2
                 rmatch =    3.431921
              splitnorm =    0.150000
                 energy =   -0.867111
                kinetic =    1.300804
    potential(screened) =   -2.167915
       potential(ionic) =   -5.962684

SPLIT: Orbitals with angular momentum L= 1

SPLIT: Basis orbitals for state 2p

SPLIT: PAO cut-off radius determined from an
SPLIT: energy shift=  0.007350 Ry

   izeta = 1
                 lambda =    1.000000
                     rc =    5.658549
                 energy =   -0.381140
                kinetic =    2.399701
    potential(screened) =   -2.780841
       potential(ionic) =   -6.206085

   izeta = 2
                 rmatch =    3.653288
              splitnorm =    0.150000
                 energy =   -0.249149
                kinetic =    3.542762
    potential(screened) =   -3.791911
       potential(ionic) =   -7.581078

POLgen: Perturbative polarization orbital with L=  2

POLgen: Polarization orbital for state 2p

   izeta = 1
                     rc =    5.658549
                 energy =    1.109913
                kinetic =    2.304789
    potential(screened) =   -1.194876
       potential(ionic) =   -4.013592
atom: Total number of Sankey-type orbitals: 13

atm_pop: Valence configuration (for local Pseudopot. screening):
 2s( 2.00)                                                            
 2p( 2.00)                                                            
Vna: chval, zval:    4.00000   4.00000

Vna:  Cut-off radius for the neutral-atom potential:   5.658549
comcore: Pseudo-core radius Rcore=  1.791422

atom: _________________________________________________________________________

prinput: Basis input ----------------------------------------------------------

PAO.BasisType split     

%block ChemicalSpeciesLabel
    1    7 N                       # Species index, atomic number, species label
    2    6 C                       # Species index, atomic number, species label
%endblock ChemicalSpeciesLabel

%block PAO.Basis                 # Define Basis set
N                     2                    # Species label, number of l-shells
 n=2   0   2                         # n, l, Nzeta 
   4.071      2.905   
   1.000      1.000   
 n=2   1   2 P   1                   # n, l, Nzeta, Polarization, NzetaPol
   4.973      3.054   
   1.000      1.000   
C                     2                    # Species label, number of l-shells
 n=2   0   2                         # n, l, Nzeta 
   4.633      3.432   
   1.000      1.000   
 n=2   1   2 P   1                   # n, l, Nzeta, Polarization, NzetaPol
   5.659      3.653   
   1.000      1.000   
%endblock PAO.Basis

prinput: ----------------------------------------------------------------------

coor:   Atomic-coordinates input format  =     Fractional

siesta: Atomic coordinates (Bohr) and species
siesta:      2.30256  41.57980   0.00000  1        1
siesta:      4.63094  34.85847   0.00000  1        2
siesta:      9.28770  29.48119   0.00000  1        3
siesta:     -0.02582  10.66124   0.00000  1        4
siesta:      2.30256  17.38257   0.00000  1        5
siesta:      6.95932  22.75985   0.00000  1        6
siesta:     -4.68258  10.66124   0.00000  1        7
siesta:     -7.01096  14.69411   0.00000  1        8
siesta:     -4.68258  18.72698   0.00000  1        9
siesta:     -9.33934  18.72698   0.00000  1       10
siesta:     -7.01096  25.44831   0.00000  1       11
siesta:     -0.02582  26.79272   0.00000  1       12
siesta:     -2.35420  33.51406   0.00000  1       13
siesta:     -0.02582   2.59549   0.00000  2       14
siesta:     -0.02582   5.28395   0.00000  2       15
siesta:     -2.35420  38.89134   0.00000  2       16
siesta:     -2.35420  41.57980   0.00000  2       17
siesta:      2.30256  38.89134   0.00000  2       18
siesta:      4.63094  37.54693   0.00000  2       19
siesta:      6.95932  30.82560   0.00000  2       20
siesta:      6.95932  33.51406   0.00000  2       21
siesta:      9.28770  26.79272   0.00000  2       22
siesta:     -4.68258  34.85847   0.00000  2       23
siesta:     -4.68258  37.54693   0.00000  2       24
siesta:      2.30256   6.62836   0.00000  2       25
siesta:      2.30256   9.31683   0.00000  2       26
siesta:      4.63094  10.66124   0.00000  2       27
siesta:      4.63094  13.34970   0.00000  2       28
siesta:      6.95932  14.69411   0.00000  2       29
siesta:      6.95932  17.38257   0.00000  2       30
siesta:      9.28770  18.72698   0.00000  2       31
siesta:      9.28770  21.41544   0.00000  2       32
siesta:     11.61608  22.75985   0.00000  2       33
siesta:     11.61608  25.44831   0.00000  2       34
siesta:     -2.35420   6.62836   0.00000  2       35
siesta:     -2.35420   9.31683   0.00000  2       36
siesta:     -0.02582  13.34970   0.00000  2       37
siesta:      2.30256  14.69411   0.00000  2       38
siesta:      4.63094  18.72698   0.00000  2       39
siesta:      4.63094  21.41544   0.00000  2       40
siesta:      6.95932  25.44831   0.00000  2       41
siesta:     -4.68258  13.34970   0.00000  2       42
siesta:     -2.35420  14.69411   0.00000  2       43
siesta:     -2.35420  17.38257   0.00000  2       44
siesta:     -0.02582  18.72698   0.00000  2       45
siesta:     -0.02582  21.41544   0.00000  2       46
siesta:      2.30256  22.75985   0.00000  2       47
siesta:      2.30256  25.44831   0.00000  2       48
siesta:     -7.01096  17.38257   0.00000  2       49
siesta:     -4.68258  21.41544   0.00000  2       50
siesta:     -2.35420  22.75985   0.00000  2       51
siesta:     -2.35420  25.44831   0.00000  2       52
siesta:     -9.33934  21.41544   0.00000  2       53
siesta:     -7.01096  22.75985   0.00000  2       54
siesta:    -11.66772  22.75985   0.00000  2       55
siesta:    -11.66772  25.44831   0.00000  2       56
siesta:     -9.33934  26.79272   0.00000  2       57
siesta:     -9.33934  29.48119   0.00000  2       58
siesta:      4.63094  26.79272   0.00000  2       59
siesta:      4.63094  29.48119   0.00000  2       60
siesta:     -0.02582  29.48119   0.00000  2       61
siesta:     -4.68258  26.79272   0.00000  2       62
siesta:     -4.68258  29.48119   0.00000  2       63
siesta:      2.30256  30.82560   0.00000  2       64
siesta:      2.30256  33.51406   0.00000  2       65
siesta:     -2.35420  30.82560   0.00000  2       66
siesta:     -7.01096  30.82560   0.00000  2       67
siesta:     -7.01096  33.51406   0.00000  2       68
siesta:     -0.02582  34.85847   0.00000  2       69
siesta:     -0.02582  37.54693   0.00000  2       70
siesta:     -0.02582  42.92421   0.00000  2       71
siesta:     -0.02582  45.61267   0.00000  2       72

siesta: System type = slab      

initatomlists: Number of atoms, orbitals, and projectors:     72   936  1152

siesta: ******************** Simulation parameters ****************************
siesta:
siesta: The following are some of the parameters of the simulation.
siesta: A complete list of the parameters used, including default values,
siesta: can be found in file out.fdf
siesta:
redata: Non-Collinear-spin run           =     F
redata: SpinPolarized (Up/Down) run      =     F
redata: Number of spin components        =     1
redata: Long output                      =     F
redata: Number of Atomic Species         =        2
redata: Charge density info will appear in .RHO file
redata: Write Mulliken Pop.              =     NO
redata: Mesh Cutoff                      =   200.0000  Ry
redata: Net charge of the system         =     0.0000 |e|
redata: Max. number of SCF Iter          =      500
redata: SCF convergence failure will abort job
redata: Performing Pulay mixing using    =    10 iterations
redata: Mix DM in first SCF step ?       =     F
redata: Write Pulay info on disk?        =     F
redata: Discard 1st Pulay DM after  kick =     F
redata: New DM Mixing Weight             =     0.0500
redata: New DM Occupancy tolerance       = 0.000000000001
redata: No kicks to SCF
redata: DM Mixing Weight for Kicks       =     0.5000
redata: DM Tolerance for SCF             =     0.000100
redata: Require Energy convergence for SCF =     F
redata: DM Energy tolerance for SCF      =     0.000100 eV
redata: Require Harris convergence for SCF =     F
redata: DM Harris energy tolerance for SCF =     0.000100 eV
redata: Using Saved Data (generic)   =     F
redata: Use continuation files for DM    =     T
redata: Neglect nonoverlap interactions  =     F
redata: Method of Calculation            =     Diagonalization
redata: Divide and Conquer               =     T
redata: Electronic Temperature           =     0.0019  Ry
redata: Fix the spin of the system       =     F
redata: Dynamics option                  =     Verlet MD run
redata: Initial MD time step             =        1
redata:   Final MD time step             =        1
redata: Length of MD time step           =     1.0000  fs
redata: Initial Temperature of MD run    =     0.0000  K
redata: Perform a MD quench              =     F
redata: ***********************************************************************
Total number of electrons:   301.000000
Total ionic charge:   301.000000

* ProcessorY, Blocksize:    2  24

k-point displ. along   1 input, could be:     0.50    0.00
k-point displ. along   2 input, could be:     0.50    0.00
 Kpoints in:          231 . Kpoints trimmed:          231

siesta: k-grid: Number of k-points =   231
siesta: k-grid: Cutoff (effective) =     5.000 Ang
siesta: k-grid: Supercell and displacements
siesta: k-grid:   21   0   0      0.500
siesta: k-grid:    0  21   0      0.500
siesta: k-grid:    0   0   1      0.000
Naive supercell factors:     2    2    2

superc: Internal auxiliary supercell:     2 x     2 x     2  =       8
superc: Number of atoms, orbitals, and projectors:    576   7488   9216

* Maximum dynamic memory allocated =     4 MB

siesta:                 ==============================
                            Begin MD step =      1
                        ==============================

superc: Internal auxiliary supercell:     2 x     2 x     2  =       8
superc: Number of atoms, orbitals, and projectors:    576   7488   9216

outcell: Unit cell vectors (Ang):
       12.804619    7.392750    0.000000
        0.000000   14.785500    0.000000
        0.000000    0.000000   10.000000

outcell: Cell vector modules (Ang)   :   14.785500   14.785500   10.000000
outcell: Cell angles (23,13,12) (deg):     90.0000     90.0000     60.0000
outcell: Cell volume (Ang**3)        :   1893.2269
New_DM. Step:     1
Initializing Density Matrix...

InitMesh: MESH =   120 x   120 x    90 =     1296000
InitMesh: Mesh cutoff (required, used) =   200.000   223.865 Ry

* Maximum dynamic memory allocated =   191 MB

stepf: Fermi-Dirac step function

siesta: Program's energy decomposition (eV):
siesta: Ebs     =     -6172.049884
siesta: Eions   =     20492.720045
siesta: Ena     =      4865.624436
siesta: Ekin    =      7469.171103
siesta: Enl     =       252.514327
siesta: DEna    =        -0.000015
siesta: DUscf   =         0.000000
siesta: DUext   =         0.000000
siesta: Exc     =     -4497.893124
siesta: eta*DQ  =         0.000000
siesta: Emadel  =         0.000000
siesta: Emeta   =         0.000000
siesta: Emolmec =         0.000000
siesta: Ekinion =         0.000000
siesta: Eharris =    -12055.637891
siesta: Etot    =    -12403.303319
siesta: FreeEng =    -12403.303319

siesta: iscf   Eharris(eV)      E_KS(eV)   FreeEng(eV)   dDmax  Ef(eV)
siesta:    1   -12055.6379   -12403.3033   -12403.3033  5.6968 -7.0174
timer: Routine,Calls,Time,% = IterSCF        1    4248.122  99.71
elaps: Routine,Calls,Wall,% = IterSCF        1     531.721  99.71
siesta:    2   -14752.7505   -11566.5203   -11566.5815  5.9782 -1.8361
siesta:    3   -11991.3101   -12122.6285   -12122.6872  1.5987 -4.0309
siesta:    4   -11955.6837   -12056.9510   -12056.9982  1.0144 -3.7953
siesta:    5   -11915.5480   -11994.9170   -11994.9680  0.7023 -4.0206
siesta:    6   -11912.2581   -11981.5168   -11981.5604  0.6675 -4.0658
siesta:    7   -11906.6583   -11969.0714   -11969.1076  0.6232 -4.0013
siesta:    8   -11905.0780   -11961.7840   -11961.8475  0.5692 -4.0161
siesta:    9   -11904.1367   -11942.9019   -11942.9604  0.4243 -3.9592
siesta:   10   -11904.0831   -11926.0571   -11926.1013  0.3006 -3.8151
siesta:   11   -11904.4556   -11914.0238   -11914.0766  0.2106 -3.9447
siesta:   12   -11904.1024   -11902.9627   -11903.0380  0.2634 -3.7959
siesta:   13   -11903.7755   -11900.5987   -11900.6456  0.2177 -3.8080
siesta:   14   -11903.4425   -11900.0245   -11900.0797  0.1218 -3.8420
siesta:   15   -11903.1668   -11896.9816   -11897.0384  0.0971 -3.8654
siesta:   16   -11903.1067   -11897.5284   -11897.5730  0.0748 -3.8722
siesta:   17   -11903.0381   -11899.4424   -11899.4871  0.0764 -3.8872
siesta:   18   -11903.0043   -11900.4829   -11900.5256  0.0569 -3.8977
siesta:   19   -11902.9822   -11900.1538   -11900.2019  0.0434 -3.8899
siesta:   20   -11902.9742   -11901.0043   -11901.0522  0.0241 -3.8974
siesta:   21   -11902.9688   -11901.6578   -11901.7137  0.0224 -3.8934
siesta:   22   -11902.9656   -11902.1829   -11902.2338  0.0134 -3.8959
siesta:   23   -11902.9636   -11902.5174   -11902.5722  0.0105 -3.8962
siesta:   24   -11902.9594   -11903.1387   -11903.1914  0.0106 -3.8995
siesta:   25   -11902.9608   -11903.0099   -11903.0662  0.0089 -3.8962
siesta:   26   -11902.9592   -11902.9134   -11902.9675  0.0049 -3.8967
siesta:   27   -11902.9595   -11902.7482   -11902.8038  0.0032 -3.8961
siesta:   28   -11902.9601   -11902.7614   -11902.8165  0.0020 -3.8959
siesta:   29   -11902.9598   -11902.8148   -11902.8692  0.0022 -3.8966
siesta:   30   -11902.9600   -11902.8703   -11902.9249  0.0011 -3.8971
siesta:   31   -11902.9599   -11902.9338   -11902.9882  0.0006 -3.8973
siesta:   32   -11902.9599   -11902.9542   -11903.0086  0.0005 -3.8971
siesta:   33   -11902.9599   -11902.9605   -11903.0150  0.0004 -3.8971
siesta:   34   -11902.9599   -11902.9609   -11903.0153  0.0004 -3.8970
siesta:   35   -11902.9599   -11902.9579   -11903.0123  0.0003 -3.8970
siesta:   36   -11902.9599   -11902.9589   -11903.0133  0.0002 -3.8971
siesta:   37   -11902.9599   -11902.9601   -11903.0145  0.0002 -3.8971
siesta:   38   -11902.9599   -11902.9572   -11903.0116  0.0001 -3.8971
siesta:   39   -11902.9599   -11902.9540   -11903.0085  0.0001 -3.8970

siesta: E_KS(eV) =           -11902.9568

siesta: E_KS - E_eggbox =    -11902.9568

siesta: Atomic forces (eV/Ang):
----------------------------------------
   Tot   -0.270383    0.097653    0.000000
----------------------------------------
   Max  673.752025
   Res  176.798316    sqrt( Sum f_i^2 / 3N )
----------------------------------------
   Max  673.752025    constrained

Stress-tensor-Voigt (kbar):     -644.00    -3122.92       -0.09       -3.38        0.00        0.00
(Free)E + p*V (eV/cell)   -10419.2555
Target enthalpy (eV/cell)   -11903.0112

siesta: Stress tensor (static) (eV/Ang**3):
        -0.401949   -0.002107    0.000000
        -0.002107   -1.949149    0.000000
         0.000000    0.000000   -0.000055

siesta: Pressure (static):       1255.66798612  kBar

siesta: Stress tensor (total) (eV/Ang**3):
        -0.401949   -0.002107    0.000000
        -0.002107   -1.949149    0.000000
         0.000000    0.000000   -0.000055

siesta: Pressure (total):       1255.66798612  kBar

siesta: Temp_ion =       0.000 K

* Maximum dynamic memory allocated =   207 MB
Computing bands...

siesta: Program's energy decomposition (eV):
siesta: Ebs     =     -4880.626765
siesta: Eions   =     20492.720045
siesta: Ena     =      4865.624436
siesta: Ekin    =     10555.833244
siesta: Enl     =     -1460.804673
siesta: DEna    =      -805.794747
siesta: DUscf   =       109.249874
siesta: DUext   =         0.000000
siesta: Exc     =     -4674.344848
siesta: eta*DQ  =         0.000000
siesta: Emadel  =         0.000000
siesta: Emeta   =         0.000000
siesta: Emolmec =         0.000000
siesta: Ekinion =         0.000000
siesta: Eharris =    -11902.959895
siesta: Etot    =    -11902.956759
siesta: FreeEng =    -11903.011224

siesta: Final energy (eV):
siesta:  Band Struct. =   -4880.626765
siesta:       Kinetic =   10555.833244
siesta:       Hartree =   34104.198155
siesta:    Ext. field =       0.000000
siesta:   Exch.-corr. =   -4674.344848
siesta:  Ion-electron =  -78333.081977
siesta:       Ion-ion =   26444.438666
siesta:       Ekinion =       0.000000
siesta:         Total =  -11902.956759

siesta: Atomic forces (eV/Ang):
siesta:      1   25.922516 -661.620216    0.000000
siesta:      2   29.696767    6.578455    0.000000
siesta:      3   -1.352575   -0.897589    0.000000
siesta:      4    5.976612  663.513395    0.000000
siesta:      5   27.570468   -2.061133    0.000000
siesta:      6   -0.465740    1.402473    0.000000
siesta:      7  -35.339799  659.624397    0.000000
siesta:      8    2.497963    2.577540    0.000000
siesta:      9    0.854127    2.806069    0.000000
siesta:     10    2.576490    0.220604    0.000000
siesta:     11    0.434594   -1.520318    0.000000
siesta:     12   -0.132610    0.990312    0.000000
siesta:     13   -9.102878 -673.752025    0.000000
siesta:     14   -3.092422  545.288208    0.000000
siesta:     15   -3.018992 -128.667374    0.000000
siesta:     16   -0.427574  130.000259    0.000000
siesta:     17  -17.789490 -553.049472    0.000000
siesta:     18    1.827354  121.469473    0.000000
siesta:     19   25.994993 -550.555636    0.000000
siesta:     20    1.640883   -1.342806    0.000000
siesta:     21   -1.615638    0.900188    0.000000
siesta:     22    0.809097    4.190604    0.000000
siesta:     23  -26.736435    8.646170    0.000000
siesta:     24  -24.757635 -655.272631    0.000000
siesta:     25   27.108641  549.914201    0.000000
siesta:     26    0.752464 -128.909469    0.000000
siesta:     27   26.515129  550.517520    0.000000
siesta:     28   26.111442   -5.698534    0.000000
siesta:     29   -1.998048   -1.038595    0.000000
siesta:     30    1.104844   -0.123258    0.000000
siesta:     31   -1.019120    0.213367    0.000000
siesta:     32    1.187213   -2.113029    0.000000
siesta:     33   -0.458015    6.858737    0.000000
siesta:     34   -0.276863   -6.471280    0.000000
siesta:     35  -22.128573  650.391758    0.000000
siesta:     36    3.387981 -127.612481    0.000000
siesta:     37   -3.651314 -121.642981    0.000000
siesta:     38    2.061707  673.175118    0.000000
siesta:     39   -0.655995    3.845320    0.000000
siesta:     40    1.314437   -0.283372    0.000000
siesta:     41   -0.410139   -2.044272    0.000000
siesta:     42  -23.764586   -6.157688    0.000000
siesta:     43  -15.032550  565.171512    0.000000
siesta:     44  -23.424838   -7.181919    0.000000
siesta:     45  -10.420882  576.401261    0.000000
siesta:     46   -0.359751    0.111555    0.000000
siesta:     47   -0.628579    1.384800    0.000000
siesta:     48    0.518548   -0.917529    0.000000
siesta:     49   -2.141666   -1.372288    0.000000
siesta:     50   -1.210669    0.046433    0.000000
siesta:     51    0.835492    0.072943    0.000000
siesta:     52   -1.297000   -0.434719    0.000000
siesta:     53   -1.480254   -3.862409    0.000000
siesta:     54    0.984289    1.562981    0.000000
siesta:     55    0.662939    6.052505    0.000000
siesta:     56    0.589057   -6.594506    0.000000
siesta:     57   -1.181207    1.912354    0.000000
siesta:     58    0.829099   -0.220080    0.000000
siesta:     59   -0.238947   -0.280635    0.000000
siesta:     60   -1.254724   -1.894228    0.000000
siesta:     61    2.168824 -567.798117    0.000000
siesta:     62   -0.155423   -0.308197    0.000000
siesta:     63    1.117395   -2.397332    0.000000
siesta:     64   22.853378    5.826852    0.000000
siesta:     65    6.255192 -563.785215    0.000000
siesta:     66  -22.717844    5.646338    0.000000
siesta:     67   -1.522654    0.185727    0.000000
siesta:     68    1.868200    1.271152    0.000000
siesta:     69    3.523808  121.939698    0.000000
siesta:     70   -9.595221 -657.761300    0.000000
siesta:     71    1.900347  126.314698    0.000000
siesta:     72   11.133976 -551.284690    0.000000
siesta: ----------------------------------------
siesta:    Tot   -0.270383    0.097653    0.000000

siesta: Stress tensor (static) (eV/Ang**3):
siesta:    -0.401949   -0.002107    0.000000
siesta:    -0.002107   -1.949149    0.000000
siesta:     0.000000    0.000000   -0.000055

siesta: Cell volume =       1893.226884 Ang**3

siesta: Pressure (static):
siesta:                Solid            Molecule  Units
siesta:           0.00853569          0.13915518  Ry/Bohr**3
siesta:           0.78371784         12.77675549  eV/Ang**3
siesta:        1255.66798612      20470.84037054  kBar
(Free)E+ p_basis*V_orbitals  =      -11874.132132
(Free)Eharris+ p_basis*V_orbitals  =      -11874.137996

siesta: Electric dipole (a.u.)  =    0.000000    0.000000    0.000000
siesta: Electric dipole (Debye) =    0.000000    0.000000    0.000000

* Maximum dynamic memory allocated : Node    0 =   207 MB
* Maximum dynamic memory allocated : Node    1 =    72 MB
* Maximum dynamic memory allocated : Node    2 =    74 MB
* Maximum dynamic memory allocated : Node    3 =   196 MB
* Maximum dynamic memory allocated : Node    4 =   189 MB
* Maximum dynamic memory allocated : Node    5 =    70 MB
* Maximum dynamic memory allocated : Node    6 =    73 MB
* Maximum dynamic memory allocated : Node    7 =   176 MB

* Maximum memory occured during matrixMtoO                    

timer: CPU execution times:
timer:  Routine       Calls   Time/call    Tot.time        %
timer:  siesta            1  163075.094  163075.094   100.00
timer:  Setup             1       3.925       3.925     0.00
timer:  bands             3     268.500     805.499     0.49
timer:  writewave         1       0.041       0.041     0.00
timer:  KSV_init          1       0.005       0.005     0.00
timer:  IterMD            1  162258.826  162258.826    99.50
timer:  hsparse           1       0.234       0.234     0.00
timer:  overlap           1       7.318       7.318     0.00
timer:  IterSCF          39    4155.982  162083.308    99.39
timer:  kinefsm           2       3.794       7.587     0.00
timer:  nlefsm            2      18.929      37.859     0.02
timer:  DHSCF            40      90.465    3618.617     2.22
timer:  DHSCF1            1       0.768       0.768     0.00
timer:  DHSCF2            1      34.335      34.335     0.02
timer:  REORD           322       0.010       3.263     0.00
timer:  POISON           41       2.243      91.954     0.06
timer:  DHSCF3           40      88.754    3550.179     2.18
timer:  rhoofd           40      17.716     708.636     0.43
timer:  cellXC           40       3.445     137.800     0.08
timer:  vmat             40      42.794    1711.758     1.05
timer:  MolMec            2       0.000       0.000     0.00
timer:  diagon           39    4063.892  158491.788    97.19
timer:  c-eigval       9130       6.648   60692.585    37.22
timer:  c-buildHS      9130       0.115    1045.612     0.64
timer:  cdiag         18139       6.832  123925.693    75.99
timer:  cdiag1        18139       0.425    7710.255     4.73
timer:  cdiag2        18139       1.903   34515.988    21.17
timer:  cdiag3        18139       3.929   71262.566    43.70
timer:  cdiag4        18139       0.203    3684.746     2.26
timer:  c-eigvec       9009       7.206   64917.600    39.81
timer:  c-buildD       9009       3.734   33638.266    20.63
timer:  DHSCF4            1      31.203      31.203     0.02
timer:  dfscf             1      29.389      29.389     0.02
timer:  overfsm           1       0.408       0.408     0.00
timer:  optical           1       6.143       6.143     0.00
  

elaps: ELAPSED times:
elaps:  Routine       Calls   Time/call    Tot.time        %
elaps:  siesta            1   20407.703   20407.703   100.00
elaps:  Setup             1       0.507       0.507     0.00
elaps:  bands             3      33.614     100.842     0.49
elaps:  writewave         1       0.006       0.006     0.00
elaps:  KSV_init          1       0.001       0.001     0.00
elaps:  IterMD            1   20305.528   20305.528    99.50
elaps:  hsparse           1       0.029       0.029     0.00
elaps:  overlap           1       0.979       0.979     0.00
elaps:  IterSCF          39     520.095   20283.688    99.39
elaps:  kinefsm           2       0.502       1.005     0.00
elaps:  nlefsm            2       2.397       4.794     0.02
elaps:  DHSCF            40      11.425     456.992     2.24
elaps:  DHSCF1            1       0.100       0.100     0.00
elaps:  DHSCF2            1       4.294       4.294     0.02
elaps:  REORD           322       0.001       0.433     0.00
elaps:  POISON           41       0.280      11.491     0.06
elaps:  DHSCF3           40      11.104     444.147     2.18
elaps:  rhoofd           40       4.962     198.482     0.97
elaps:  cellXC           40       0.430      17.200     0.08
elaps:  vmat             40       5.354     214.143     1.05
elaps:  MolMec            2       0.000       0.000     0.00
elaps:  diagon           39     508.582   19834.689    97.19
elaps:  c-eigval       9130       0.832    7593.766    37.21
elaps:  c-buildHS      9130       0.016     144.275     0.71
elaps:  cdiag         18139       0.843   15284.174    74.89
elaps:  cdiag1        18139       0.053     953.613     4.67
elaps:  cdiag2        18139       0.238    4318.736    21.16
elaps:  cdiag3        18139       0.492    8928.664    43.75
elaps:  cdiag4        18139       0.025     461.894     2.26
elaps:  c-eigvec       9009       0.882    7948.615    38.95
elaps:  c-buildD       9009       0.487    4385.745    21.49
elaps:  DHSCF4            1       8.159       8.159     0.04
elaps:  dfscf             1       7.768       7.768     0.04
elaps:  overfsm           1       0.053       0.053     0.00
elaps:  optical           1       0.001       0.001     0.00
  
>> End of run:   8-MAY-2016   7:48:00
