Siesta Version:                                        siesta-3.2-pl-3
Architecture  : x86_64-unknown-linux-gnu--unknown
Compiler flags: mpiifort -g -O2 -fPIC -xSSE4.1 -fp-model source -shared-intel 
PARALLEL version

* Running on    8 nodes in parallel
>> Start of run:   7-MAY-2016   3:33:04

                           ***********************       
                           *  WELCOME TO SIESTA  *       
                           ***********************       

reinit: Reading from standard input
************************** Dump of input data file ****************************
#(1) General system descriptors
SystemName            GRP_doping    # Descriptive name of the system
SystemLabel           GRP_doping    # Short name for naming files
%include STRUCT.fdf
%include KPT.fdf
%include BASIS.fdf
#%include TS.fdf # for transiesta calculation
#(4) DFT, Grid, SCF
XC.functional         GGA           # LDA or GGA (default = LDA)
XC.authors            PBE           # CA (Ceperley-Aldr) = PZ
                                    #    (Perdew-Zunger) - LDA - Default
                                    # PW92 (Perdew-Wang-92) - LDA
                                    # PBE (Perdew-Burke-Ernzerhof) - GGA
MeshCutoff            200.000000    Ry      # Default: 50.0 Ry ~ 0.444 Bohr
                                    #         100.0 Ry ~ 0.314 Bohr
MaxSCFIterations      500           # Default: 50
DM.MixingWeight       0.05          # Default: 0.25
DM.NumberPulay        10            # Default: 0
DM.PulayOnFile        F             # SystemLabel.P1, SystemLabel.P2
DM.Tolerance          1.d-4         # Default: 1.d-4
DM.UseSaveDM          .true.        # because of the bug
SCFMustConverge       .true.
NeglNonOverlapInt     F             # Default: F
#(5) Eigenvalue problem: order-N or diagonalization
SolutionMethod        Diagon        # or Transiesta
ElectronicTemperature 300.0 K       # Default: 300.0 K
#(6) Molecular dynamics and relaxations
#MD.TypeOfRun          CG            # Type of dynamics:
#MD.VariableCell       F
#MD.NumCGsteps         0           # 0 for single-point / 100 for gopt
#MD.MaxCGDispl         0.2 Bohr      # Default: 0.2 Bohr
#MD.MaxForceTol        0.02 eV/Ang   # Default: 0.04 eV/Ang
#MD.MaxStressTol       1.0 GPa       # Default: 1.0 GPa
# Geometry Constraints
#%block GeometryConstraints
#	position from 1 to 44
#%endblock GeometryConstraints
BandLinesScale   pi/a
%block BandLines
 1   0.00000000  0.00000000  0.00000000
50   0.00000000  0.07809418  0.00000000
50   0.04509075  0.07809242  0.00000000
20   0.00000000  0.00000000  0.00000000
%endblock BandLines
************************** End of input data file *****************************

reinit: -----------------------------------------------------------------------
reinit: System Name: GRP_doping
reinit: -----------------------------------------------------------------------
reinit: System Label: GRP_doping                                                  
reinit: -----------------------------------------------------------------------

initatom: Reading input for the pseudopotentials and atomic orbitals ----------
 Species number:            1  Label: N Atomic number:           7
 Species number:            2  Label: C Atomic number:           6
Ground state valence configuration:   2s02  2p03
Reading pseudopotential information in formatted form from N.psf

Valence configuration for pseudopotential generation:
2s( 2.00) rc: 1.48
2p( 3.00) rc: 1.48
3d( 0.00) rc: 1.48
4f( 0.00) rc: 1.48
Ground state valence configuration:   2s02  2p02
Reading pseudopotential information in formatted form from C.psf

Valence configuration for pseudopotential generation:
2s( 2.00) rc: 1.54
2p( 2.00) rc: 1.54
3d( 0.00) rc: 1.54
4f( 0.00) rc: 1.54
For N, standard SIESTA heuristics set lmxkb to 3
 (one more than the basis l, including polarization orbitals).
Use PS.lmax or PS.KBprojectors blocks to override.
For C, standard SIESTA heuristics set lmxkb to 3
 (one more than the basis l, including polarization orbitals).
Use PS.lmax or PS.KBprojectors blocks to override.

<basis_specs>
===============================================================================
N                    Z=   7    Mass=  14.010        Charge= 0.17977+309
Lmxo=1 Lmxkb= 3    BasisType=split      Semic=F
L=0  Nsemic=0  Cnfigmx=2
          n=1  nzeta=2  polorb=0
            splnorm:   0.15000    
               vcte:    0.0000    
               rinn:    0.0000    
                rcs:    0.0000      0.0000    
            lambdas:    1.0000      1.0000    
L=1  Nsemic=0  Cnfigmx=2
          n=1  nzeta=2  polorb=1
            splnorm:   0.15000    
               vcte:    0.0000    
               rinn:    0.0000    
                rcs:    0.0000      0.0000    
            lambdas:    1.0000      1.0000    
-------------------------------------------------------------------------------
L=0  Nkbl=1  erefs: 0.17977+309
L=1  Nkbl=1  erefs: 0.17977+309
L=2  Nkbl=1  erefs: 0.17977+309
L=3  Nkbl=1  erefs: 0.17977+309
===============================================================================
</basis_specs>

atom: Called for N                     (Z =   7)

read_vps: Pseudopotential generation method:
read_vps: ATM3      Troullier-Martins                       
Total valence charge:    5.00000

read_vps: Pseudopotential includes a core correction:
read_vps: Pseudo-core for xc-correction

xc_check: Exchange-correlation functional:
xc_check: GGA Perdew, Burke & Ernzerhof 1996
V l=0 = -2*Zval/r beyond r=  1.4606
V l=1 = -2*Zval/r beyond r=  1.4606
V l=2 = -2*Zval/r beyond r=  1.4606
V l=3 = -2*Zval/r beyond r=  1.4606
All V_l potentials equal beyond r=  1.4606
This should be close to max(r_c) in ps generation
All pots = -2*Zval/r beyond r=  1.4606

VLOCAL1: 99.0% of the norm of Vloc inside     20.347 Ry
VLOCAL1: 99.9% of the norm of Vloc inside     46.372 Ry
atom: Maximum radius for 4*pi*r*r*local-pseudopot. charge    1.76189
atom: Maximum radius for r*vlocal+2*Zval:    1.53550
GHOST: No ghost state for L =  0
GHOST: No ghost state for L =  1
GHOST: No ghost state for L =  2
GHOST: No ghost state for L =  3

KBgen: Kleinman-Bylander projectors: 
   l= 0   rc=  1.634559   el= -1.363963   Ekb=  5.296955   kbcos=  0.335621
   l= 1   rc=  1.614250   el= -0.521451   Ekb= -5.259161   kbcos= -0.433408
   l= 2   rc=  1.718383   el=  0.001991   Ekb= -1.271464   kbcos= -0.007566
   l= 3   rc=  1.761893   el=  0.003093   Ekb= -0.494769   kbcos= -0.001015

KBgen: Total number of  Kleinman-Bylander projectors:   16
atom: -------------------------------------------------------------------------

atom: SANKEY-TYPE ORBITALS:
atom: Selected multiple-zeta basis: split     

SPLIT: Orbitals with angular momentum L= 0

SPLIT: Basis orbitals for state 2s

SPLIT: PAO cut-off radius determined from an
SPLIT: energy shift=  0.007350 Ry

   izeta = 1
                 lambda =    1.000000
                     rc =    4.071465
                 energy =   -1.356470
                kinetic =    1.176977
    potential(screened) =   -2.533447
       potential(ionic) =   -8.057990

   izeta = 2
                 rmatch =    2.905100
              splitnorm =    0.150000
                 energy =   -1.158343
                kinetic =    1.813009
    potential(screened) =   -2.971352
       potential(ionic) =   -8.901931

SPLIT: Orbitals with angular momentum L= 1

SPLIT: Basis orbitals for state 2p

SPLIT: PAO cut-off radius determined from an
SPLIT: energy shift=  0.007350 Ry

   izeta = 1
                 lambda =    1.000000
                     rc =    4.972977
                 energy =   -0.513884
                kinetic =    3.441732
    potential(screened) =   -3.955616
       potential(ionic) =   -9.287901

   izeta = 2
                 rmatch =    3.054066
              splitnorm =    0.150000
                 energy =   -0.318226
                kinetic =    5.125348
    potential(screened) =   -5.443573
       potential(ionic) =  -11.380999

POLgen: Perturbative polarization orbital with L=  2

POLgen: Polarization orbital for state 2p

   izeta = 1
                     rc =    4.972977
                 energy =    1.607437
                kinetic =    3.268125
    potential(screened) =   -1.660688
       potential(ionic) =   -5.973652
atom: Total number of Sankey-type orbitals: 13

atm_pop: Valence configuration (for local Pseudopot. screening):
 2s( 2.00)                                                            
 2p( 3.00)                                                            
Vna: chval, zval:    5.00000   5.00000

Vna:  Cut-off radius for the neutral-atom potential:   4.972977
comcore: Pseudo-core radius Rcore=  1.554824

atom: _________________________________________________________________________

<basis_specs>
===============================================================================
C                    Z=   6    Mass=  12.010        Charge= 0.17977+309
Lmxo=1 Lmxkb= 3    BasisType=split      Semic=F
L=0  Nsemic=0  Cnfigmx=2
          n=1  nzeta=2  polorb=0
            splnorm:   0.15000    
               vcte:    0.0000    
               rinn:    0.0000    
                rcs:    0.0000      0.0000    
            lambdas:    1.0000      1.0000    
L=1  Nsemic=0  Cnfigmx=2
          n=1  nzeta=2  polorb=1
            splnorm:   0.15000    
               vcte:    0.0000    
               rinn:    0.0000    
                rcs:    0.0000      0.0000    
            lambdas:    1.0000      1.0000    
-------------------------------------------------------------------------------
L=0  Nkbl=1  erefs: 0.17977+309
L=1  Nkbl=1  erefs: 0.17977+309
L=2  Nkbl=1  erefs: 0.17977+309
L=3  Nkbl=1  erefs: 0.17977+309
===============================================================================
</basis_specs>

atom: Called for C                     (Z =   6)

read_vps: Pseudopotential generation method:
read_vps: ATM3      Troullier-Martins                       
Total valence charge:    4.00000

read_vps: Pseudopotential includes a core correction:
read_vps: Pseudo-core for xc-correction

xc_check: Exchange-correlation functional:
xc_check: GGA Perdew, Burke & Ernzerhof 1996
V l=0 = -2*Zval/r beyond r=  1.5227
V l=1 = -2*Zval/r beyond r=  1.5227
V l=2 = -2*Zval/r beyond r=  1.5227
V l=3 = -2*Zval/r beyond r=  1.5038
All V_l potentials equal beyond r=  1.5227
This should be close to max(r_c) in ps generation
All pots = -2*Zval/r beyond r=  1.5227

VLOCAL1: 99.0% of the norm of Vloc inside     18.722 Ry
VLOCAL1: 99.9% of the norm of Vloc inside     42.668 Ry
atom: Maximum radius for 4*pi*r*r*local-pseudopot. charge    1.83678
atom: Maximum radius for r*vlocal+2*Zval:    1.58088
GHOST: No ghost state for L =  0
GHOST: No ghost state for L =  1
GHOST: No ghost state for L =  2
GHOST: No ghost state for L =  3

KBgen: Kleinman-Bylander projectors: 
   l= 0   rc=  1.704034   el= -1.009801   Ekb=  5.335044   kbcos=  0.316824
   l= 1   rc=  1.704034   el= -0.388707   Ekb= -3.785862   kbcos= -0.366464
   l= 2   rc=  1.791422   el=  0.001971   Ekb= -0.970471   kbcos= -0.009212
   l= 3   rc=  1.859892   el=  0.003065   Ekb= -0.399525   kbcos= -0.001223

KBgen: Total number of  Kleinman-Bylander projectors:   16
atom: -------------------------------------------------------------------------

atom: SANKEY-TYPE ORBITALS:
atom: Selected multiple-zeta basis: split     

SPLIT: Orbitals with angular momentum L= 0

SPLIT: Basis orbitals for state 2s

SPLIT: PAO cut-off radius determined from an
SPLIT: energy shift=  0.007350 Ry

   izeta = 1
                 lambda =    1.000000
                     rc =    4.632753
                 energy =   -1.002270
                kinetic =    0.855760
    potential(screened) =   -1.858031
       potential(ionic) =   -5.417575

   izeta = 2
                 rmatch =    3.431921
              splitnorm =    0.150000
                 energy =   -0.867111
                kinetic =    1.300804
    potential(screened) =   -2.167915
       potential(ionic) =   -5.962684

SPLIT: Orbitals with angular momentum L= 1

SPLIT: Basis orbitals for state 2p

SPLIT: PAO cut-off radius determined from an
SPLIT: energy shift=  0.007350 Ry

   izeta = 1
                 lambda =    1.000000
                     rc =    5.658549
                 energy =   -0.381140
                kinetic =    2.399701
    potential(screened) =   -2.780841
       potential(ionic) =   -6.206085

   izeta = 2
                 rmatch =    3.653288
              splitnorm =    0.150000
                 energy =   -0.249149
                kinetic =    3.542762
    potential(screened) =   -3.791911
       potential(ionic) =   -7.581078

POLgen: Perturbative polarization orbital with L=  2

POLgen: Polarization orbital for state 2p

   izeta = 1
                     rc =    5.658549
                 energy =    1.109913
                kinetic =    2.304789
    potential(screened) =   -1.194876
       potential(ionic) =   -4.013592
atom: Total number of Sankey-type orbitals: 13

atm_pop: Valence configuration (for local Pseudopot. screening):
 2s( 2.00)                                                            
 2p( 2.00)                                                            
Vna: chval, zval:    4.00000   4.00000

Vna:  Cut-off radius for the neutral-atom potential:   5.658549
comcore: Pseudo-core radius Rcore=  1.791422

atom: _________________________________________________________________________

prinput: Basis input ----------------------------------------------------------

PAO.BasisType split     

%block ChemicalSpeciesLabel
    1    7 N                       # Species index, atomic number, species label
    2    6 C                       # Species index, atomic number, species label
%endblock ChemicalSpeciesLabel

%block PAO.Basis                 # Define Basis set
N                     2                    # Species label, number of l-shells
 n=2   0   2                         # n, l, Nzeta 
   4.071      2.905   
   1.000      1.000   
 n=2   1   2 P   1                   # n, l, Nzeta, Polarization, NzetaPol
   4.973      3.054   
   1.000      1.000   
C                     2                    # Species label, number of l-shells
 n=2   0   2                         # n, l, Nzeta 
   4.633      3.432   
   1.000      1.000   
 n=2   1   2 P   1                   # n, l, Nzeta, Polarization, NzetaPol
   5.659      3.653   
   1.000      1.000   
%endblock PAO.Basis

prinput: ----------------------------------------------------------------------

coor:   Atomic-coordinates input format  =     Fractional

siesta: Atomic coordinates (Bohr) and species
siesta:     -2.35420  38.89134   0.00000  1        1
siesta:     -4.68258  34.85847   0.00000  1        2
siesta:      9.28770  18.72698   0.00000  1        3
siesta:      4.63094  21.41544   0.00000  1        4
siesta:      2.30256  22.75985   0.00000  1        5
siesta:     -2.35420  25.44831   0.00000  1        6
siesta:    -11.66772  22.75985   0.00000  1        7
siesta:     -9.33934  26.79272   0.00000  1        8
siesta:     -9.33934  29.48119   0.00000  1        9
siesta:     -4.68258  26.79272   0.00000  1       10
siesta:     -7.01096  30.82560   0.00000  1       11
siesta:     -0.02582  42.92421   0.00000  1       12
siesta:     -0.02582   2.59549   0.00000  2       13
siesta:     -0.02582   5.28395   0.00000  2       14
siesta:     -2.35420  41.57980   0.00000  2       15
siesta:      2.30256  38.89134   0.00000  2       16
siesta:      2.30256  41.57980   0.00000  2       17
siesta:      4.63094  34.85847   0.00000  2       18
siesta:      4.63094  37.54693   0.00000  2       19
siesta:      6.95932  30.82560   0.00000  2       20
siesta:      6.95932  33.51406   0.00000  2       21
siesta:      9.28770  26.79272   0.00000  2       22
siesta:      9.28770  29.48119   0.00000  2       23
siesta:     -4.68258  37.54693   0.00000  2       24
siesta:      2.30256   6.62836   0.00000  2       25
siesta:      2.30256   9.31683   0.00000  2       26
siesta:      4.63094  10.66124   0.00000  2       27
siesta:      4.63094  13.34970   0.00000  2       28
siesta:      6.95932  14.69411   0.00000  2       29
siesta:      6.95932  17.38257   0.00000  2       30
siesta:      9.28770  21.41544   0.00000  2       31
siesta:     11.61608  22.75985   0.00000  2       32
siesta:     11.61608  25.44831   0.00000  2       33
siesta:     -2.35420   6.62836   0.00000  2       34
siesta:     -2.35420   9.31683   0.00000  2       35
siesta:     -0.02582  10.66124   0.00000  2       36
siesta:     -0.02582  13.34970   0.00000  2       37
siesta:      2.30256  14.69411   0.00000  2       38
siesta:      2.30256  17.38257   0.00000  2       39
siesta:      4.63094  18.72698   0.00000  2       40
siesta:      6.95932  22.75985   0.00000  2       41
siesta:      6.95932  25.44831   0.00000  2       42
siesta:     -4.68258  10.66124   0.00000  2       43
siesta:     -4.68258  13.34970   0.00000  2       44
siesta:     -2.35420  14.69411   0.00000  2       45
siesta:     -2.35420  17.38257   0.00000  2       46
siesta:     -0.02582  18.72698   0.00000  2       47
siesta:     -0.02582  21.41544   0.00000  2       48
siesta:      2.30256  25.44831   0.00000  2       49
siesta:     -7.01096  14.69411   0.00000  2       50
siesta:     -7.01096  17.38257   0.00000  2       51
siesta:     -4.68258  18.72698   0.00000  2       52
siesta:     -4.68258  21.41544   0.00000  2       53
siesta:     -2.35420  22.75985   0.00000  2       54
siesta:     -9.33934  18.72698   0.00000  2       55
siesta:     -9.33934  21.41544   0.00000  2       56
siesta:     -7.01096  22.75985   0.00000  2       57
siesta:     -7.01096  25.44831   0.00000  2       58
siesta:    -11.66772  25.44831   0.00000  2       59
siesta:      4.63094  26.79272   0.00000  2       60
siesta:      4.63094  29.48119   0.00000  2       61
siesta:     -0.02582  26.79272   0.00000  2       62
siesta:     -0.02582  29.48119   0.00000  2       63
siesta:     -4.68258  29.48119   0.00000  2       64
siesta:      2.30256  30.82560   0.00000  2       65
siesta:      2.30256  33.51406   0.00000  2       66
siesta:     -2.35420  30.82560   0.00000  2       67
siesta:     -2.35420  33.51406   0.00000  2       68
siesta:     -7.01096  33.51406   0.00000  2       69
siesta:     -0.02582  34.85847   0.00000  2       70
siesta:     -0.02582  37.54693   0.00000  2       71
siesta:     -0.02582  45.61267   0.00000  2       72

siesta: System type = slab      

initatomlists: Number of atoms, orbitals, and projectors:     72   936  1152

siesta: ******************** Simulation parameters ****************************
siesta:
siesta: The following are some of the parameters of the simulation.
siesta: A complete list of the parameters used, including default values,
siesta: can be found in file out.fdf
siesta:
redata: Non-Collinear-spin run           =     F
redata: SpinPolarized (Up/Down) run      =     F
redata: Number of spin components        =     1
redata: Long output                      =     F
redata: Number of Atomic Species         =        2
redata: Charge density info will appear in .RHO file
redata: Write Mulliken Pop.              =     NO
redata: Mesh Cutoff                      =   200.0000  Ry
redata: Net charge of the system         =     0.0000 |e|
redata: Max. number of SCF Iter          =      500
redata: SCF convergence failure will abort job
redata: Performing Pulay mixing using    =    10 iterations
redata: Mix DM in first SCF step ?       =     F
redata: Write Pulay info on disk?        =     F
redata: Discard 1st Pulay DM after  kick =     F
redata: New DM Mixing Weight             =     0.0500
redata: New DM Occupancy tolerance       = 0.000000000001
redata: No kicks to SCF
redata: DM Mixing Weight for Kicks       =     0.5000
redata: DM Tolerance for SCF             =     0.000100
redata: Require Energy convergence for SCF =     F
redata: DM Energy tolerance for SCF      =     0.000100 eV
redata: Require Harris convergence for SCF =     F
redata: DM Harris energy tolerance for SCF =     0.000100 eV
redata: Using Saved Data (generic)   =     F
redata: Use continuation files for DM    =     T
redata: Neglect nonoverlap interactions  =     F
redata: Method of Calculation            =     Diagonalization
redata: Divide and Conquer               =     T
redata: Electronic Temperature           =     0.0019  Ry
redata: Fix the spin of the system       =     F
redata: Dynamics option                  =     Verlet MD run
redata: Initial MD time step             =        1
redata:   Final MD time step             =        1
redata: Length of MD time step           =     1.0000  fs
redata: Initial Temperature of MD run    =     0.0000  K
redata: Perform a MD quench              =     F
redata: ***********************************************************************
Total number of electrons:   300.000000
Total ionic charge:   300.000000

* ProcessorY, Blocksize:    2  24

k-point displ. along   1 input, could be:     0.50    0.00
k-point displ. along   2 input, could be:     0.50    0.00
 Kpoints in:          231 . Kpoints trimmed:          231

siesta: k-grid: Number of k-points =   231
siesta: k-grid: Cutoff (effective) =     5.000 Ang
siesta: k-grid: Supercell and displacements
siesta: k-grid:   21   0   0      0.500
siesta: k-grid:    0  21   0      0.500
siesta: k-grid:    0   0   1      0.000
Naive supercell factors:     2    2    2

superc: Internal auxiliary supercell:     2 x     2 x     2  =       8
superc: Number of atoms, orbitals, and projectors:    576   7488   9216

* Maximum dynamic memory allocated =     4 MB

siesta:                 ==============================
                            Begin MD step =      1
                        ==============================

superc: Internal auxiliary supercell:     2 x     2 x     2  =       8
superc: Number of atoms, orbitals, and projectors:    576   7488   9216

outcell: Unit cell vectors (Ang):
       12.804619    7.392750    0.000000
        0.000000   14.785500    0.000000
        0.000000    0.000000   10.000000

outcell: Cell vector modules (Ang)   :   14.785500   14.785500   10.000000
outcell: Cell angles (23,13,12) (deg):     90.0000     90.0000     60.0000
outcell: Cell volume (Ang**3)        :   1893.2269
New_DM. Step:     1
Initializing Density Matrix...

InitMesh: MESH =   120 x   120 x    90 =     1296000
InitMesh: Mesh cutoff (required, used) =   200.000   223.865 Ry

* Maximum dynamic memory allocated =   189 MB

stepf: Fermi-Dirac step function

siesta: Program's energy decomposition (eV):
siesta: Ebs     =     -6070.914412
siesta: Eions   =     20331.973201
siesta: Ena     =      4825.771066
siesta: Ekin    =      7385.248291
siesta: Enl     =       280.634163
siesta: DEna    =        -0.000015
siesta: DUscf   =         0.000000
siesta: DUext   =         0.000000
siesta: Exc     =     -4465.213996
siesta: eta*DQ  =         0.000000
siesta: Emadel  =         0.000000
siesta: Emeta   =         0.000000
siesta: Emolmec =         0.000000
siesta: Ekinion =         0.000000
siesta: Eharris =    -11960.468655
siesta: Etot    =    -12305.533692
siesta: FreeEng =    -12305.533692

siesta: iscf   Eharris(eV)      E_KS(eV)   FreeEng(eV)   dDmax  Ef(eV)
siesta:    1   -11960.4687   -12305.5337   -12305.5337  7.6350 -7.0767
timer: Routine,Calls,Time,% = IterSCF        1    3404.984  99.70
elaps: Routine,Calls,Wall,% = IterSCF        1     426.435  99.70
siesta:    2   -16447.4185   -11318.0565   -11318.0983 13.7697 -3.6228
siesta:    3   -11926.6255   -12061.6976   -12061.6978  2.3249 -4.2190
siesta:    4   -11867.5278   -11974.5561   -11974.6127  1.3570 -4.1531
siesta:    5   -11839.7113   -11912.2804   -11912.3369  1.0109 -3.9444
siesta:    6   -11817.9460   -11880.4260   -11880.4606  0.7849 -4.1290
siesta:    7   -11814.2632   -11865.6512   -11865.6966  0.7529 -4.0896
siesta:    8   -11809.4333   -11852.7374   -11852.7590  0.6990 -4.1372
siesta:    9   -11808.9328   -11833.7697   -11833.8443  0.4288 -4.1766
siesta:   10   -11807.7228   -11826.1138   -11826.1991  0.5789 -4.0793
siesta:   11   -11807.6792   -11812.5952   -11812.6498  0.3192 -4.1123
siesta:   12   -11807.8946   -11803.7616   -11803.8313  0.3016 -4.0041
siesta:   13   -11807.8126   -11796.5004   -11796.5696  0.2889 -4.0468
siesta:   14   -11807.4473   -11797.3120   -11797.3804  0.2358 -4.0682
siesta:   15   -11807.0628   -11800.2862   -11800.3417  0.2295 -4.1137
siesta:   16   -11806.8006   -11800.2752   -11800.3696  0.1118 -4.0920
siesta:   17   -11806.6856   -11802.3642   -11802.4278  0.0898 -4.0941
siesta:   18   -11806.6073   -11802.7051   -11802.7618  0.0818 -4.0934
siesta:   19   -11806.5710   -11803.6175   -11803.6783  0.0713 -4.0987
siesta:   20   -11806.5404   -11803.3515   -11803.4145  0.0573 -4.1021
siesta:   21   -11806.5363   -11804.7571   -11804.8191  0.0392 -4.1124
siesta:   22   -11806.5374   -11807.1237   -11807.1857  0.0251 -4.1167
siesta:   23   -11806.5367   -11807.6041   -11807.6647  0.0288 -4.1153
siesta:   24   -11806.5273   -11807.2966   -11807.3567  0.0221 -4.1139
siesta:   25   -11806.5239   -11807.0022   -11807.0644  0.0169 -4.1087
siesta:   26   -11806.5245   -11806.7099   -11806.7731  0.0087 -4.1026
siesta:   27   -11806.5241   -11806.6840   -11806.7449  0.0073 -4.1029
siesta:   28   -11806.5239   -11806.6691   -11806.7303  0.0058 -4.1035
siesta:   29   -11806.5233   -11806.6865   -11806.7478  0.0035 -4.1040
siesta:   30   -11806.5230   -11806.6427   -11806.7043  0.0020 -4.1047
siesta:   31   -11806.5231   -11806.6292   -11806.6910  0.0013 -4.1045
siesta:   32   -11806.5230   -11806.5904   -11806.6522  0.0007 -4.1046
siesta:   33   -11806.5231   -11806.5654   -11806.6271  0.0007 -4.1046
siesta:   34   -11806.5231   -11806.5480   -11806.6098  0.0006 -4.1047
siesta:   35   -11806.5231   -11806.5448   -11806.6064  0.0004 -4.1048
siesta:   36   -11806.5231   -11806.5447   -11806.6064  0.0002 -4.1049
siesta:   37   -11806.5231   -11806.5427   -11806.6044  0.0001 -4.1049
siesta:   38   -11806.5231   -11806.5378   -11806.5995  0.0001 -4.1048
siesta:   39   -11806.5231   -11806.5333   -11806.5951  0.0001 -4.1048

siesta: E_KS(eV) =           -11806.5306

siesta: E_KS - E_eggbox =    -11806.5306

siesta: Atomic forces (eV/Ang):
----------------------------------------
   Tot   -0.090618   -0.088617    0.000000
----------------------------------------
   Max  569.403740
   Res  161.634951    sqrt( Sum f_i^2 / 3N )
----------------------------------------
   Max  569.403740    constrained

Stress-tensor-Voigt (kbar):     -665.78    -2836.25       -0.07       15.63        0.00        0.00
(Free)E + p*V (eV/cell)   -10427.1765
Target enthalpy (eV/cell)   -11806.5923

siesta: Stress tensor (static) (eV/Ang**3):
        -0.415544    0.009758    0.000000
         0.009758   -1.770230    0.000000
         0.000000    0.000000   -0.000043

siesta: Pressure (static):       1167.36760661  kBar

siesta: Stress tensor (total) (eV/Ang**3):
        -0.415544    0.009758    0.000000
         0.009758   -1.770230    0.000000
         0.000000    0.000000   -0.000043

siesta: Pressure (total):       1167.36760661  kBar

siesta: Temp_ion =       0.000 K

* Maximum dynamic memory allocated =   205 MB
Computing bands...

siesta: Program's energy decomposition (eV):
siesta: Ebs     =     -4855.610153
siesta: Eions   =     20331.973201
siesta: Ena     =      4825.771066
siesta: Ekin    =     10339.490424
siesta: Enl     =     -1365.722897
siesta: DEna    =      -744.290656
siesta: DUscf   =        98.159840
siesta: DUext   =         0.000000
siesta: Exc     =     -4627.965183
siesta: eta*DQ  =         0.000000
siesta: Emadel  =         0.000000
siesta: Emeta   =         0.000000
siesta: Emolmec =         0.000000
siesta: Ekinion =         0.000000
siesta: Eharris =    -11806.523075
siesta: Etot    =    -11806.530608
siesta: FreeEng =    -11806.592330

siesta: Final energy (eV):
siesta:  Band Struct. =   -4855.610153
siesta:       Kinetic =   10339.490424
siesta:       Hartree =   33335.073523
siesta:    Ext. field =       0.000000
siesta:   Exch.-corr. =   -4627.965183
siesta:  Ion-electron =  -76609.629278
siesta:       Ion-ion =   25756.499907
siesta:       Ekinion =       0.000000
siesta:         Total =  -11806.530608

siesta: Atomic forces (eV/Ang):
siesta:      1    1.340212  121.448858    0.000000
siesta:      2  -27.850086    7.238954    0.000000
siesta:      3   -1.885298   -0.042022    0.000000
siesta:      4    0.306824   -0.132013    0.000000
siesta:      5    0.811517    0.115352    0.000000
siesta:      6   -0.756924    0.035682    0.000000
siesta:      7    1.359962    4.410424    0.000000
siesta:      8    2.809813    0.879800    0.000000
siesta:      9   -1.674888   -0.159673    0.000000
siesta:     10   -0.850138    0.483837    0.000000
siesta:     11    1.860302    0.089319    0.000000
siesta:     12    0.029943  126.757881    0.000000
siesta:     13   -0.391568  548.559858    0.000000
siesta:     14   -5.018586 -131.611459    0.000000
siesta:     15   -8.961228 -544.784823    0.000000
siesta:     16    0.272983  127.315951    0.000000
siesta:     17   20.139557 -553.079015    0.000000
siesta:     18   26.244507    5.460171    0.000000
siesta:     19   32.878644 -549.451713    0.000000
siesta:     20    1.725872    0.323071    0.000000
siesta:     21   -2.892058    2.076322    0.000000
siesta:     22    2.083859    1.883796    0.000000
siesta:     23   -0.720257    0.101294    0.000000
siesta:     24  -27.433669 -549.981572    0.000000
siesta:     25   18.655139  548.544662    0.000000
siesta:     26   -2.945614 -128.225561    0.000000
siesta:     27   34.648422  550.034381    0.000000
siesta:     28   26.435661   -6.476493    0.000000
siesta:     29   -2.505508   -1.500501    0.000000
siesta:     30    2.875972    2.305202    0.000000
siesta:     31    0.670431   -3.689510    0.000000
siesta:     32   -0.409546    6.591401    0.000000
siesta:     33   -0.345053   -7.394615    0.000000
siesta:     34  -31.278982  550.595681    0.000000
siesta:     35   -0.706997 -120.088038    0.000000
siesta:     36  -13.529567  540.788038    0.000000
siesta:     37   -0.225374 -121.394256    0.000000
siesta:     38    7.745806  557.194671    0.000000
siesta:     39   24.577973   -3.260466    0.000000
siesta:     40   -2.506268    3.475504    0.000000
siesta:     41   -0.807506    1.256566    0.000000
siesta:     42   -0.404556   -1.422135    0.000000
siesta:     43  -25.917362  548.522121    0.000000
siesta:     44  -28.849547   -2.553385    0.000000
siesta:     45  -16.886618  557.075780    0.000000
siesta:     46  -25.315487   -4.027801    0.000000
siesta:     47    0.461680  567.711765    0.000000
siesta:     48    0.161757    1.599996    0.000000
siesta:     49   -0.209369   -0.566872    0.000000
siesta:     50    2.391971   -1.414872    0.000000
siesta:     51   -1.942557   -0.063136    0.000000
siesta:     52    1.944955    2.803595    0.000000
siesta:     53    0.052519    0.126209    0.000000
siesta:     54    0.147923    0.279653    0.000000
siesta:     55    0.801720    0.745477    0.000000
siesta:     56   -2.332085   -0.566906    0.000000
siesta:     57    0.092918    1.231176    0.000000
siesta:     58   -0.623283   -0.539524    0.000000
siesta:     59    0.178220   -3.355392    0.000000
siesta:     60   -0.018519    0.348160    0.000000
siesta:     61   -1.216808   -2.941146    0.000000
siesta:     62   -0.213639   -1.375993    0.000000
siesta:     63   -0.597970 -561.595571    0.000000
siesta:     64    1.503606   -2.909721    0.000000
siesta:     65   23.853520    7.996007    0.000000
siesta:     66   22.409092 -557.889396    0.000000
siesta:     67  -24.008977    7.135646    0.000000
siesta:     68   -5.629715 -569.403740    0.000000
siesta:     69    0.624105   -1.978493    0.000000
siesta:     70    0.808672  127.901477    0.000000
siesta:     71    4.737028 -550.572571    0.000000
siesta:     72    0.127907 -547.083973    0.000000
siesta: ----------------------------------------
siesta:    Tot   -0.090618   -0.088617    0.000000

siesta: Stress tensor (static) (eV/Ang**3):
siesta:    -0.415544    0.009758    0.000000
siesta:     0.009758   -1.770230    0.000000
siesta:     0.000000    0.000000   -0.000043

siesta: Cell volume =       1893.226884 Ang**3

siesta: Pressure (static):
siesta:                Solid            Molecule  Units
siesta:           0.00793545          0.12627577  Ry/Bohr**3
siesta:           0.72860568         11.59421178  eV/Ang**3
siesta:        1167.36760661      18576.17598780  kBar
(Free)E+ p_basis*V_orbitals  =      -11777.570275
(Free)Eharris+ p_basis*V_orbitals  =      -11777.560000

siesta: Electric dipole (a.u.)  =    0.000000    0.000000    0.000000
siesta: Electric dipole (Debye) =    0.000000    0.000000    0.000000

* Maximum dynamic memory allocated : Node    0 =   205 MB
* Maximum dynamic memory allocated : Node    1 =    72 MB
* Maximum dynamic memory allocated : Node    2 =    75 MB
* Maximum dynamic memory allocated : Node    3 =   194 MB
* Maximum dynamic memory allocated : Node    4 =   192 MB
* Maximum dynamic memory allocated : Node    5 =    71 MB
* Maximum dynamic memory allocated : Node    6 =    73 MB
* Maximum dynamic memory allocated : Node    7 =   177 MB

* Maximum memory occured during matrixMtoO                    

timer: CPU execution times:
timer:  Routine       Calls   Time/call    Tot.time        %
timer:  siesta            1  129051.872  129051.872   100.00
timer:  Setup             1       2.685       2.685     0.00
timer:  bands             3     243.594     730.783     0.57
timer:  writewave         1       0.017       0.017     0.00
timer:  KSV_init          1       0.005       0.005     0.00
timer:  IterMD            1  128313.151  128313.151    99.43
timer:  hsparse           1       0.282       0.282     0.00
timer:  overlap           1       6.701       6.701     0.01
timer:  IterSCF          39    3286.077  128157.002    99.31
timer:  kinefsm           2       3.468       6.936     0.01
timer:  nlefsm            2      17.552      35.103     0.03
timer:  DHSCF            40      78.726    3149.026     2.44
timer:  DHSCF1            1       0.747       0.747     0.00
timer:  DHSCF2            1      31.220      31.220     0.02
timer:  REORD           322       0.005       1.604     0.00
timer:  POISON           41       0.895      36.703     0.03
timer:  DHSCF3           40      77.166    3086.649     2.39
timer:  rhoofd           40      16.811     672.438     0.52
timer:  cellXC           40       3.284     131.378     0.10
timer:  vmat             40      35.784    1431.350     1.11
timer:  MolMec            2       0.000       0.000     0.00
timer:  diagon           39    3206.671  125060.168    96.91
timer:  c-eigval       9130       6.020   54964.510    42.59
timer:  c-buildHS      9130       0.047     433.553     0.34
timer:  cdiag         18139       6.137  111316.580    86.26
timer:  cdiag1        18139       0.385    6983.485     5.41
timer:  cdiag2        18139       1.766   32025.343    24.82
timer:  cdiag3        18139       3.732   67702.688    52.46
timer:  cdiag4        18139       0.149    2707.072     2.10
timer:  c-eigvec       9009       6.342   57134.986    44.27
timer:  c-buildD       9009       1.515   13645.912    10.57
timer:  DHSCF4            1      29.616      29.616     0.02
timer:  dfscf             1      27.711      27.711     0.02
timer:  overfsm           1       0.384       0.384     0.00
timer:  optical           1       4.589       4.589     0.00
  

elaps: ELAPSED times:
elaps:  Routine       Calls   Time/call    Tot.time        %
elaps:  siesta            1   16161.698   16161.698   100.00
elaps:  Setup             1       0.336       0.336     0.00
elaps:  bands             3      30.524      91.572     0.57
elaps:  writewave         1       0.002       0.002     0.00
elaps:  KSV_init          1       0.000       0.000     0.00
elaps:  IterMD            1   16069.184   16069.184    99.43
elaps:  hsparse           1       0.037       0.037     0.00
elaps:  overlap           1       0.901       0.901     0.01
elaps:  IterSCF          39     411.529   16049.629    99.31
elaps:  kinefsm           2       0.466       0.933     0.01
elaps:  nlefsm            2       2.221       4.442     0.03
elaps:  DHSCF            40       9.957     398.283     2.46
elaps:  DHSCF1            1       0.095       0.095     0.00
elaps:  DHSCF2            1       3.910       3.910     0.02
elaps:  REORD           322       0.001       0.220     0.00
elaps:  POISON           41       0.112       4.608     0.03
elaps:  DHSCF3           40       9.665     386.584     2.39
elaps:  rhoofd           40       4.632     185.295     1.15
elaps:  cellXC           40       0.411      16.429     0.10
elaps:  vmat             40       4.482     179.272     1.11
elaps:  MolMec            2       0.000       0.000     0.00
elaps:  diagon           39     401.587   15661.893    96.91
elaps:  c-eigval       9130       0.754    6883.389    42.59
elaps:  c-buildHS      9130       0.007      59.775     0.37
elaps:  cdiag         18139       0.766   13902.956    86.02
elaps:  cdiag1        18139       0.048     875.660     5.42
elaps:  cdiag2        18139       0.221    4011.542    24.82
elaps:  cdiag3        18139       0.468    8489.731    52.53
elaps:  cdiag4        18139       0.018     330.471     2.04
elaps:  c-eigvec       9009       0.791    7126.443    44.09
elaps:  c-buildD       9009       0.193    1737.283    10.75
elaps:  DHSCF4            1       7.595       7.595     0.05
elaps:  dfscf             1       7.186       7.186     0.04
elaps:  overfsm           1       0.050       0.050     0.00
elaps:  optical           1       0.000       0.000     0.00
  
>> End of run:   7-MAY-2016   8:02:26
