Siesta Version:                                        siesta-3.2-pl-3
Architecture  : x86_64-unknown-linux-gnu--unknown
Compiler flags: mpiifort -g -O2 -fPIC -xSSE4.1 -fp-model source -shared-intel 
PARALLEL version

* Running on    8 nodes in parallel
>> Start of run:  23-APR-2016  20:42:51

                           ***********************       
                           *  WELCOME TO SIESTA  *       
                           ***********************       

reinit: Reading from standard input
************************** Dump of input data file ****************************
#(1) General system descriptors
SystemName            GRP_doping    # Descriptive name of the system
SystemLabel           GRP_doping    # Short name for naming files
%include STRUCT.fdf
%include KPT.fdf
%include BASIS.fdf
#%include TS.fdf # for transiesta calculation
#(4) DFT, Grid, SCF
XC.functional         GGA           # LDA or GGA (default = LDA)
XC.authors            PBE           # CA (Ceperley-Aldr) = PZ
                                    #    (Perdew-Zunger) - LDA - Default
                                    # PW92 (Perdew-Wang-92) - LDA
                                    # PBE (Perdew-Burke-Ernzerhof) - GGA
MeshCutoff            200.000000    Ry      # Default: 50.0 Ry ~ 0.444 Bohr
                                    #         100.0 Ry ~ 0.314 Bohr
MaxSCFIterations      500           # Default: 50
DM.MixingWeight       0.05          # Default: 0.25
DM.NumberPulay        10            # Default: 0
DM.PulayOnFile        F             # SystemLabel.P1, SystemLabel.P2
DM.Tolerance          1.d-4         # Default: 1.d-4
DM.UseSaveDM          .true.        # because of the bug
SCFMustConverge       .true.
NeglNonOverlapInt     F             # Default: F
#(5) Eigenvalue problem: order-N or diagonalization
SolutionMethod        Diagon        # or Transiesta
ElectronicTemperature 300.0 K       # Default: 300.0 K
#(6) Molecular dynamics and relaxations
#MD.TypeOfRun          CG            # Type of dynamics:
#MD.VariableCell       F
#MD.NumCGsteps         0           # 0 for single-point / 100 for gopt
#MD.MaxCGDispl         0.2 Bohr      # Default: 0.2 Bohr
#MD.MaxForceTol        0.02 eV/Ang   # Default: 0.04 eV/Ang
#MD.MaxStressTol       1.0 GPa       # Default: 1.0 GPa
# Geometry Constraints
#%block GeometryConstraints
#	position from 1 to 44
#%endblock GeometryConstraints
BandLinesScale   pi/a
%block BandLines
 1   0.00000000  0.00000000  0.00000000
50   0.00000000  0.07809418  0.00000000
50   0.04509075  0.07809242  0.00000000
20   0.00000000  0.00000000  0.00000000
%endblock BandLines
************************** End of input data file *****************************

reinit: -----------------------------------------------------------------------
reinit: System Name: GRP_doping
reinit: -----------------------------------------------------------------------
reinit: System Label: GRP_doping                                                  
reinit: -----------------------------------------------------------------------

initatom: Reading input for the pseudopotentials and atomic orbitals ----------
 Species number:            1  Label: N Atomic number:           7
 Species number:            2  Label: C Atomic number:           6
Ground state valence configuration:   2s02  2p03
Reading pseudopotential information in formatted form from N.psf

Valence configuration for pseudopotential generation:
2s( 2.00) rc: 1.48
2p( 3.00) rc: 1.48
3d( 0.00) rc: 1.48
4f( 0.00) rc: 1.48
Ground state valence configuration:   2s02  2p02
Reading pseudopotential information in formatted form from C.psf

Valence configuration for pseudopotential generation:
2s( 2.00) rc: 1.54
2p( 2.00) rc: 1.54
3d( 0.00) rc: 1.54
4f( 0.00) rc: 1.54
For N, standard SIESTA heuristics set lmxkb to 3
 (one more than the basis l, including polarization orbitals).
Use PS.lmax or PS.KBprojectors blocks to override.
For C, standard SIESTA heuristics set lmxkb to 3
 (one more than the basis l, including polarization orbitals).
Use PS.lmax or PS.KBprojectors blocks to override.

<basis_specs>
===============================================================================
N                    Z=   7    Mass=  14.010        Charge= 0.17977+309
Lmxo=1 Lmxkb= 3    BasisType=split      Semic=F
L=0  Nsemic=0  Cnfigmx=2
          n=1  nzeta=2  polorb=0
            splnorm:   0.15000    
               vcte:    0.0000    
               rinn:    0.0000    
                rcs:    0.0000      0.0000    
            lambdas:    1.0000      1.0000    
L=1  Nsemic=0  Cnfigmx=2
          n=1  nzeta=2  polorb=1
            splnorm:   0.15000    
               vcte:    0.0000    
               rinn:    0.0000    
                rcs:    0.0000      0.0000    
            lambdas:    1.0000      1.0000    
-------------------------------------------------------------------------------
L=0  Nkbl=1  erefs: 0.17977+309
L=1  Nkbl=1  erefs: 0.17977+309
L=2  Nkbl=1  erefs: 0.17977+309
L=3  Nkbl=1  erefs: 0.17977+309
===============================================================================
</basis_specs>

atom: Called for N                     (Z =   7)

read_vps: Pseudopotential generation method:
read_vps: ATM3      Troullier-Martins                       
Total valence charge:    5.00000

read_vps: Pseudopotential includes a core correction:
read_vps: Pseudo-core for xc-correction

xc_check: Exchange-correlation functional:
xc_check: GGA Perdew, Burke & Ernzerhof 1996
V l=0 = -2*Zval/r beyond r=  1.4606
V l=1 = -2*Zval/r beyond r=  1.4606
V l=2 = -2*Zval/r beyond r=  1.4606
V l=3 = -2*Zval/r beyond r=  1.4606
All V_l potentials equal beyond r=  1.4606
This should be close to max(r_c) in ps generation
All pots = -2*Zval/r beyond r=  1.4606

VLOCAL1: 99.0% of the norm of Vloc inside     20.347 Ry
VLOCAL1: 99.9% of the norm of Vloc inside     46.372 Ry
atom: Maximum radius for 4*pi*r*r*local-pseudopot. charge    1.76189
atom: Maximum radius for r*vlocal+2*Zval:    1.53550
GHOST: No ghost state for L =  0
GHOST: No ghost state for L =  1
GHOST: No ghost state for L =  2
GHOST: No ghost state for L =  3

KBgen: Kleinman-Bylander projectors: 
   l= 0   rc=  1.634559   el= -1.363963   Ekb=  5.296955   kbcos=  0.335621
   l= 1   rc=  1.614250   el= -0.521451   Ekb= -5.259161   kbcos= -0.433408
   l= 2   rc=  1.718383   el=  0.001991   Ekb= -1.271464   kbcos= -0.007566
   l= 3   rc=  1.761893   el=  0.003093   Ekb= -0.494769   kbcos= -0.001015

KBgen: Total number of  Kleinman-Bylander projectors:   16
atom: -------------------------------------------------------------------------

atom: SANKEY-TYPE ORBITALS:
atom: Selected multiple-zeta basis: split     

SPLIT: Orbitals with angular momentum L= 0

SPLIT: Basis orbitals for state 2s

SPLIT: PAO cut-off radius determined from an
SPLIT: energy shift=  0.007350 Ry

   izeta = 1
                 lambda =    1.000000
                     rc =    4.071465
                 energy =   -1.356470
                kinetic =    1.176977
    potential(screened) =   -2.533447
       potential(ionic) =   -8.057990

   izeta = 2
                 rmatch =    2.905100
              splitnorm =    0.150000
                 energy =   -1.158343
                kinetic =    1.813009
    potential(screened) =   -2.971352
       potential(ionic) =   -8.901931

SPLIT: Orbitals with angular momentum L= 1

SPLIT: Basis orbitals for state 2p

SPLIT: PAO cut-off radius determined from an
SPLIT: energy shift=  0.007350 Ry

   izeta = 1
                 lambda =    1.000000
                     rc =    4.972977
                 energy =   -0.513884
                kinetic =    3.441732
    potential(screened) =   -3.955616
       potential(ionic) =   -9.287901

   izeta = 2
                 rmatch =    3.054066
              splitnorm =    0.150000
                 energy =   -0.318226
                kinetic =    5.125348
    potential(screened) =   -5.443573
       potential(ionic) =  -11.380999

POLgen: Perturbative polarization orbital with L=  2

POLgen: Polarization orbital for state 2p

   izeta = 1
                     rc =    4.972977
                 energy =    1.607437
                kinetic =    3.268125
    potential(screened) =   -1.660688
       potential(ionic) =   -5.973652
atom: Total number of Sankey-type orbitals: 13

atm_pop: Valence configuration (for local Pseudopot. screening):
 2s( 2.00)                                                            
 2p( 3.00)                                                            
Vna: chval, zval:    5.00000   5.00000

Vna:  Cut-off radius for the neutral-atom potential:   4.972977
comcore: Pseudo-core radius Rcore=  1.554824

atom: _________________________________________________________________________

<basis_specs>
===============================================================================
C                    Z=   6    Mass=  12.010        Charge= 0.17977+309
Lmxo=1 Lmxkb= 3    BasisType=split      Semic=F
L=0  Nsemic=0  Cnfigmx=2
          n=1  nzeta=2  polorb=0
            splnorm:   0.15000    
               vcte:    0.0000    
               rinn:    0.0000    
                rcs:    0.0000      0.0000    
            lambdas:    1.0000      1.0000    
L=1  Nsemic=0  Cnfigmx=2
          n=1  nzeta=2  polorb=1
            splnorm:   0.15000    
               vcte:    0.0000    
               rinn:    0.0000    
                rcs:    0.0000      0.0000    
            lambdas:    1.0000      1.0000    
-------------------------------------------------------------------------------
L=0  Nkbl=1  erefs: 0.17977+309
L=1  Nkbl=1  erefs: 0.17977+309
L=2  Nkbl=1  erefs: 0.17977+309
L=3  Nkbl=1  erefs: 0.17977+309
===============================================================================
</basis_specs>

atom: Called for C                     (Z =   6)

read_vps: Pseudopotential generation method:
read_vps: ATM3      Troullier-Martins                       
Total valence charge:    4.00000

read_vps: Pseudopotential includes a core correction:
read_vps: Pseudo-core for xc-correction

xc_check: Exchange-correlation functional:
xc_check: GGA Perdew, Burke & Ernzerhof 1996
V l=0 = -2*Zval/r beyond r=  1.5227
V l=1 = -2*Zval/r beyond r=  1.5227
V l=2 = -2*Zval/r beyond r=  1.5227
V l=3 = -2*Zval/r beyond r=  1.5038
All V_l potentials equal beyond r=  1.5227
This should be close to max(r_c) in ps generation
All pots = -2*Zval/r beyond r=  1.5227

VLOCAL1: 99.0% of the norm of Vloc inside     18.722 Ry
VLOCAL1: 99.9% of the norm of Vloc inside     42.668 Ry
atom: Maximum radius for 4*pi*r*r*local-pseudopot. charge    1.83678
atom: Maximum radius for r*vlocal+2*Zval:    1.58088
GHOST: No ghost state for L =  0
GHOST: No ghost state for L =  1
GHOST: No ghost state for L =  2
GHOST: No ghost state for L =  3

KBgen: Kleinman-Bylander projectors: 
   l= 0   rc=  1.704034   el= -1.009801   Ekb=  5.335044   kbcos=  0.316824
   l= 1   rc=  1.704034   el= -0.388707   Ekb= -3.785862   kbcos= -0.366464
   l= 2   rc=  1.791422   el=  0.001971   Ekb= -0.970471   kbcos= -0.009212
   l= 3   rc=  1.859892   el=  0.003065   Ekb= -0.399525   kbcos= -0.001223

KBgen: Total number of  Kleinman-Bylander projectors:   16
atom: -------------------------------------------------------------------------

atom: SANKEY-TYPE ORBITALS:
atom: Selected multiple-zeta basis: split     

SPLIT: Orbitals with angular momentum L= 0

SPLIT: Basis orbitals for state 2s

SPLIT: PAO cut-off radius determined from an
SPLIT: energy shift=  0.007350 Ry

   izeta = 1
                 lambda =    1.000000
                     rc =    4.632753
                 energy =   -1.002270
                kinetic =    0.855760
    potential(screened) =   -1.858031
       potential(ionic) =   -5.417575

   izeta = 2
                 rmatch =    3.431921
              splitnorm =    0.150000
                 energy =   -0.867111
                kinetic =    1.300804
    potential(screened) =   -2.167915
       potential(ionic) =   -5.962684

SPLIT: Orbitals with angular momentum L= 1

SPLIT: Basis orbitals for state 2p

SPLIT: PAO cut-off radius determined from an
SPLIT: energy shift=  0.007350 Ry

   izeta = 1
                 lambda =    1.000000
                     rc =    5.658549
                 energy =   -0.381140
                kinetic =    2.399701
    potential(screened) =   -2.780841
       potential(ionic) =   -6.206085

   izeta = 2
                 rmatch =    3.653288
              splitnorm =    0.150000
                 energy =   -0.249149
                kinetic =    3.542762
    potential(screened) =   -3.791911
       potential(ionic) =   -7.581078

POLgen: Perturbative polarization orbital with L=  2

POLgen: Polarization orbital for state 2p

   izeta = 1
                     rc =    5.658549
                 energy =    1.109913
                kinetic =    2.304789
    potential(screened) =   -1.194876
       potential(ionic) =   -4.013592
atom: Total number of Sankey-type orbitals: 13

atm_pop: Valence configuration (for local Pseudopot. screening):
 2s( 2.00)                                                            
 2p( 2.00)                                                            
Vna: chval, zval:    4.00000   4.00000

Vna:  Cut-off radius for the neutral-atom potential:   5.658549
comcore: Pseudo-core radius Rcore=  1.791422

atom: _________________________________________________________________________

prinput: Basis input ----------------------------------------------------------

PAO.BasisType split     

%block ChemicalSpeciesLabel
    1    7 N                       # Species index, atomic number, species label
    2    6 C                       # Species index, atomic number, species label
%endblock ChemicalSpeciesLabel

%block PAO.Basis                 # Define Basis set
N                     2                    # Species label, number of l-shells
 n=2   0   2                         # n, l, Nzeta 
   4.071      2.905   
   1.000      1.000   
 n=2   1   2 P   1                   # n, l, Nzeta, Polarization, NzetaPol
   4.973      3.054   
   1.000      1.000   
C                     2                    # Species label, number of l-shells
 n=2   0   2                         # n, l, Nzeta 
   4.633      3.432   
   1.000      1.000   
 n=2   1   2 P   1                   # n, l, Nzeta, Polarization, NzetaPol
   5.659      3.653   
   1.000      1.000   
%endblock PAO.Basis

prinput: ----------------------------------------------------------------------

coor:   Atomic-coordinates input format  =     Fractional

siesta: Atomic coordinates (Bohr) and species
siesta:      2.30256  38.89134   0.00000  1        1
siesta:      2.30256  41.57980   0.00000  1        2
siesta:      9.28770  26.79272   0.00000  1        3
siesta:      9.28770  29.48119   0.00000  1        4
siesta:      4.63094  18.72698   0.00000  1        5
siesta:      4.63094  21.41544   0.00000  1        6
siesta:      6.95932  22.75985   0.00000  1        7
siesta:      6.95932  25.44831   0.00000  1        8
siesta:     -4.68258  10.66124   0.00000  1        9
siesta:     -4.68258  13.34970   0.00000  1       10
siesta:     -2.35420  14.69411   0.00000  1       11
siesta:     -2.35420  17.38257   0.00000  1       12
siesta:     -0.02582  18.72698   0.00000  1       13
siesta:     -0.02582  21.41544   0.00000  1       14
siesta:    -11.66772  22.75985   0.00000  1       15
siesta:    -11.66772  25.44831   0.00000  1       16
siesta:     -9.33934  26.79272   0.00000  1       17
siesta:     -9.33934  29.48119   0.00000  1       18
siesta:     -2.35420  30.82560   0.00000  1       19
siesta:     -2.35420  33.51406   0.00000  1       20
siesta:     -7.01096  30.82560   0.00000  1       21
siesta:     -7.01096  33.51406   0.00000  1       22
siesta:     -0.02582  34.85847   0.00000  1       23
siesta:     -0.02582  37.54693   0.00000  1       24
siesta:     -0.02582   2.59549   0.00000  2       25
siesta:     -0.02582   5.28395   0.00000  2       26
siesta:     -2.35420  38.89134   0.00000  2       27
siesta:     -2.35420  41.57980   0.00000  2       28
siesta:      4.63094  34.85847   0.00000  2       29
siesta:      4.63094  37.54693   0.00000  2       30
siesta:      6.95932  30.82560   0.00000  2       31
siesta:      6.95932  33.51406   0.00000  2       32
siesta:     -4.68258  34.85847   0.00000  2       33
siesta:     -4.68258  37.54693   0.00000  2       34
siesta:      2.30256   6.62836   0.00000  2       35
siesta:      2.30256   9.31683   0.00000  2       36
siesta:      4.63094  10.66124   0.00000  2       37
siesta:      4.63094  13.34970   0.00000  2       38
siesta:      6.95932  14.69411   0.00000  2       39
siesta:      6.95932  17.38257   0.00000  2       40
siesta:      9.28770  18.72698   0.00000  2       41
siesta:      9.28770  21.41544   0.00000  2       42
siesta:     11.61608  22.75985   0.00000  2       43
siesta:     11.61608  25.44831   0.00000  2       44
siesta:     -2.35420   6.62836   0.00000  2       45
siesta:     -2.35420   9.31683   0.00000  2       46
siesta:     -0.02582  10.66124   0.00000  2       47
siesta:     -0.02582  13.34970   0.00000  2       48
siesta:      2.30256  14.69411   0.00000  2       49
siesta:      2.30256  17.38257   0.00000  2       50
siesta:      2.30256  22.75985   0.00000  2       51
siesta:      2.30256  25.44831   0.00000  2       52
siesta:     -7.01096  14.69411   0.00000  2       53
siesta:     -7.01096  17.38257   0.00000  2       54
siesta:     -4.68258  18.72698   0.00000  2       55
siesta:     -4.68258  21.41544   0.00000  2       56
siesta:     -2.35420  22.75985   0.00000  2       57
siesta:     -2.35420  25.44831   0.00000  2       58
siesta:     -9.33934  18.72698   0.00000  2       59
siesta:     -9.33934  21.41544   0.00000  2       60
siesta:     -7.01096  22.75985   0.00000  2       61
siesta:     -7.01096  25.44831   0.00000  2       62
siesta:      4.63094  26.79272   0.00000  2       63
siesta:      4.63094  29.48119   0.00000  2       64
siesta:     -0.02582  26.79272   0.00000  2       65
siesta:     -0.02582  29.48119   0.00000  2       66
siesta:     -4.68258  26.79272   0.00000  2       67
siesta:     -4.68258  29.48119   0.00000  2       68
siesta:      2.30256  30.82560   0.00000  2       69
siesta:      2.30256  33.51406   0.00000  2       70
siesta:     -0.02582  42.92421   0.00000  2       71
siesta:     -0.02582  45.61267   0.00000  2       72

siesta: System type = slab      

initatomlists: Number of atoms, orbitals, and projectors:     72   936  1152

siesta: ******************** Simulation parameters ****************************
siesta:
siesta: The following are some of the parameters of the simulation.
siesta: A complete list of the parameters used, including default values,
siesta: can be found in file out.fdf
siesta:
redata: Non-Collinear-spin run           =     F
redata: SpinPolarized (Up/Down) run      =     F
redata: Number of spin components        =     1
redata: Long output                      =     F
redata: Number of Atomic Species         =        2
redata: Charge density info will appear in .RHO file
redata: Write Mulliken Pop.              =     NO
redata: Mesh Cutoff                      =   200.0000  Ry
redata: Net charge of the system         =     0.0000 |e|
redata: Max. number of SCF Iter          =      500
redata: SCF convergence failure will abort job
redata: Performing Pulay mixing using    =    10 iterations
redata: Mix DM in first SCF step ?       =     F
redata: Write Pulay info on disk?        =     F
redata: Discard 1st Pulay DM after  kick =     F
redata: New DM Mixing Weight             =     0.0500
redata: New DM Occupancy tolerance       = 0.000000000001
redata: No kicks to SCF
redata: DM Mixing Weight for Kicks       =     0.5000
redata: DM Tolerance for SCF             =     0.000100
redata: Require Energy convergence for SCF =     F
redata: DM Energy tolerance for SCF      =     0.000100 eV
redata: Require Harris convergence for SCF =     F
redata: DM Harris energy tolerance for SCF =     0.000100 eV
redata: Using Saved Data (generic)   =     F
redata: Use continuation files for DM    =     T
redata: Neglect nonoverlap interactions  =     F
redata: Method of Calculation            =     Diagonalization
redata: Divide and Conquer               =     T
redata: Electronic Temperature           =     0.0019  Ry
redata: Fix the spin of the system       =     F
redata: Dynamics option                  =     Verlet MD run
redata: Initial MD time step             =        1
redata:   Final MD time step             =        1
redata: Length of MD time step           =     1.0000  fs
redata: Initial Temperature of MD run    =     0.0000  K
redata: Perform a MD quench              =     F
redata: ***********************************************************************
Total number of electrons:   312.000000
Total ionic charge:   312.000000

* ProcessorY, Blocksize:    2  24

k-point displ. along   1 input, could be:     0.50    0.00
k-point displ. along   2 input, could be:     0.50    0.00
 Kpoints in:          231 . Kpoints trimmed:          231

siesta: k-grid: Number of k-points =   231
siesta: k-grid: Cutoff (effective) =     5.000 Ang
siesta: k-grid: Supercell and displacements
siesta: k-grid:   21   0   0      0.500
siesta: k-grid:    0  21   0      0.500
siesta: k-grid:    0   0   1      0.000
Naive supercell factors:     2    2    2

superc: Internal auxiliary supercell:     2 x     2 x     2  =       8
superc: Number of atoms, orbitals, and projectors:    576   7488   9216

* Maximum dynamic memory allocated =     4 MB

siesta:                 ==============================
                            Begin MD step =      1
                        ==============================

superc: Internal auxiliary supercell:     2 x     2 x     2  =       8
superc: Number of atoms, orbitals, and projectors:    576   7488   9216

outcell: Unit cell vectors (Ang):
       12.804619    7.392750    0.000000
        0.000000   14.785500    0.000000
        0.000000    0.000000   10.000000

outcell: Cell vector modules (Ang)   :   14.785500   14.785500   10.000000
outcell: Cell angles (23,13,12) (deg):     90.0000     90.0000     60.0000
outcell: Cell volume (Ang**3)        :   1893.2269
New_DM. Step:     1
Initializing Density Matrix...

InitMesh: MESH =   120 x   120 x    90 =     1296000
InitMesh: Mesh cutoff (required, used) =   200.000   223.865 Ry

* Maximum dynamic memory allocated =   180 MB

stepf: Fermi-Dirac step function

siesta: Program's energy decomposition (eV):
siesta: Ebs     =     -6384.953485
siesta: Eions   =     22260.935331
siesta: Ena     =      4982.015905
siesta: Ekin    =      8392.322035
siesta: Enl     =       -63.077369
siesta: DEna    =        -0.000015
siesta: DUscf   =         0.000000
siesta: DUext   =         0.000000
siesta: Exc     =     -4777.397061
siesta: eta*DQ  =         0.000000
siesta: Emadel  =         0.000000
siesta: Emeta   =         0.000000
siesta: Emolmec =         0.000000
siesta: Ekinion =         0.000000
siesta: Eharris =    -13349.473639
siesta: Etot    =    -13727.071837
siesta: FreeEng =    -13727.071837

siesta: iscf   Eharris(eV)      E_KS(eV)   FreeEng(eV)   dDmax  Ef(eV)
siesta:    1   -13349.4736   -13727.0718   -13727.0718  6.1650 -6.9202
timer: Routine,Calls,Time,% = IterSCF        1    4084.394  99.70
elaps: Routine,Calls,Wall,% = IterSCF        1     511.185  99.70
siesta:    2   -16802.1887   -12790.7448   -12790.7636 13.2477 -2.2915
siesta:    3   -13261.5335   -13463.6203   -13463.6791  1.7437 -4.3354
siesta:    4   -13228.9303   -13356.5380   -13356.5681  0.9342 -3.7744
siesta:    5   -13194.4133   -13298.3561   -13298.4102  0.8281 -3.6209
siesta:    6   -13189.6817   -13279.6451   -13279.6948  0.8149 -3.7005
siesta:    7   -13186.6014   -13265.6560   -13265.7395  0.6236 -3.8065
siesta:    8   -13185.7471   -13246.3543   -13246.4066  0.5341 -3.7598
siesta:    9   -13185.3656   -13229.5709   -13229.5979  0.5056 -3.7686
siesta:   10   -13185.8327   -13203.2871   -13203.3532  0.4365 -3.7827
siesta:   11   -13185.1491   -13188.7626   -13188.8352  0.3372 -3.7449
siesta:   12   -13184.2540   -13180.3345   -13180.3969  0.2901 -3.7206
siesta:   13   -13183.9319   -13177.0132   -13177.1228  0.2243 -3.7350
siesta:   14   -13183.6343   -13177.2718   -13177.3548  0.2886 -3.7235
siesta:   15   -13183.4052   -13175.5676   -13175.6455  0.3124 -3.7209
siesta:   16   -13183.3100   -13175.3160   -13175.3878  0.1544 -3.7280
siesta:   17   -13183.1271   -13174.6395   -13174.7209  0.1521 -3.7433
siesta:   18   -13183.0942   -13175.7234   -13175.8283  0.1177 -3.7471
siesta:   19   -13183.0732   -13177.6474   -13177.7488  0.0940 -3.7525
siesta:   20   -13183.0666   -13180.9357   -13181.0394  0.0716 -3.7663
siesta:   21   -13183.0572   -13181.9086   -13182.0131  0.0463 -3.7604
siesta:   22   -13183.0500   -13182.9162   -13183.0192  0.0494 -3.7596
siesta:   23   -13183.0516   -13183.6994   -13183.8057  0.0303 -3.7574
siesta:   24   -13183.0497   -13184.0395   -13184.1422  0.0223 -3.7535
siesta:   25   -13183.0492   -13183.3621   -13183.4658  0.0205 -3.7503
siesta:   26   -13183.0469   -13183.3972   -13183.5005  0.0139 -3.7485
siesta:   27   -13183.0463   -13183.2661   -13183.3706  0.0099 -3.7484
siesta:   28   -13183.0465   -13183.2143   -13183.3192  0.0113 -3.7482
siesta:   29   -13183.0460   -13183.1597   -13183.2641  0.0052 -3.7476
siesta:   30   -13183.0461   -13183.1377   -13183.2424  0.0038 -3.7478
siesta:   31   -13183.0460   -13183.0721   -13183.1767  0.0033 -3.7482
siesta:   32   -13183.0460   -13183.0040   -13183.1087  0.0021 -3.7485
siesta:   33   -13183.0460   -13183.0174   -13183.1221  0.0016 -3.7485
siesta:   34   -13183.0460   -13183.0470   -13183.1517  0.0008 -3.7488
siesta:   35   -13183.0460   -13183.0472   -13183.1519  0.0004 -3.7489
siesta:   36   -13183.0460   -13183.0567   -13183.1614  0.0003 -3.7489
siesta:   37   -13183.0459   -13183.0581   -13183.1628  0.0002 -3.7489
siesta:   38   -13183.0459   -13183.0560   -13183.1607  0.0003 -3.7489
siesta:   39   -13183.0459   -13183.0501   -13183.1548  0.0002 -3.7488
siesta:   40   -13183.0459   -13183.0426   -13183.1473  0.0001 -3.7488

siesta: E_KS(eV) =           -13183.0422

siesta: E_KS - E_eggbox =    -13183.0422

siesta: Atomic forces (eV/Ang):
----------------------------------------
   Tot   -0.268715    0.091633    0.000000
----------------------------------------
   Max  685.153890
   Res  183.717428    sqrt( Sum f_i^2 / 3N )
----------------------------------------
   Max  685.153890    constrained

Stress-tensor-Voigt (kbar):     -635.12    -3303.74       -0.01        8.14        0.00        0.00
(Free)E + p*V (eV/cell)   -11631.6978
Target enthalpy (eV/cell)   -13183.1470

siesta: Stress tensor (static) (eV/Ang**3):
        -0.396404    0.005078    0.000000
         0.005078   -2.062007    0.000000
         0.000000    0.000000   -0.000009

siesta: Pressure (static):       1312.95541871  kBar

siesta: Stress tensor (total) (eV/Ang**3):
        -0.396404    0.005078    0.000000
         0.005078   -2.062007    0.000000
         0.000000    0.000000   -0.000009

siesta: Pressure (total):       1312.95541871  kBar

siesta: Temp_ion =       0.000 K

* Maximum dynamic memory allocated =   197 MB
Computing bands...

siesta: Program's energy decomposition (eV):
siesta: Ebs     =     -5110.346537
siesta: Eions   =     22260.935331
siesta: Ena     =      4982.015905
siesta: Ekin    =     11555.346746
siesta: Enl     =     -1790.425614
siesta: DEna    =      -826.569167
siesta: DUscf   =       116.142010
siesta: DUext   =         0.000000
siesta: Exc     =     -4958.616793
siesta: eta*DQ  =         0.000000
siesta: Emadel  =         0.000000
siesta: Emeta   =         0.000000
siesta: Emolmec =         0.000000
siesta: Ekinion =         0.000000
siesta: Eharris =    -13183.045938
siesta: Etot    =    -13183.042244
siesta: FreeEng =    -13183.146960

siesta: Final energy (eV):
siesta:  Band Struct. =   -5110.346537
siesta:       Kinetic =   11555.346746
siesta:       Hartree =   36920.691383
siesta:    Ext. field =       0.000000
siesta:   Exch.-corr. =   -4958.616793
siesta:  Ion-electron =  -84862.121165
siesta:       Ion-ion =   28161.657584
siesta:       Ekinion =       0.000000
siesta:         Total =  -13183.042244

siesta: Atomic forces (eV/Ang):
siesta:      1    1.407369  104.441040    0.000000
siesta:      2   13.081127 -649.805015    0.000000
siesta:      3    1.763384    2.376051    0.000000
siesta:      4   -1.024079   -1.727306    0.000000
siesta:      5   -0.171776    2.473280    0.000000
siesta:      6   -2.579889    1.391361    0.000000
siesta:      7    1.545220   -0.101140    0.000000
siesta:      8   -2.164602    0.191252    0.000000
siesta:      9  -22.831838  654.993838    0.000000
siesta:     10  -32.524007   -4.666316    0.000000
siesta:     11    2.290437  681.626176    0.000000
siesta:     12  -33.357676  -11.287048    0.000000
siesta:     13   15.026049  685.153890    0.000000
siesta:     14    1.292687   -1.889564    0.000000
siesta:     15    1.502950    3.264382    0.000000
siesta:     16    0.119190   -2.113431    0.000000
siesta:     17    2.418155    0.076237    0.000000
siesta:     18   -1.316851   -0.111229    0.000000
siesta:     19  -27.174722    3.009925    0.000000
siesta:     20   -4.173531 -679.833485    0.000000
siesta:     21    2.497729    0.137992    0.000000
siesta:     22    0.514060   -2.911338    0.000000
siesta:     23    2.737570  109.576015    0.000000
siesta:     24   -7.539347 -660.911521    0.000000
siesta:     25  -17.106021  549.632623    0.000000
siesta:     26    0.285464 -122.065062    0.000000
siesta:     27   -1.954987  124.043787    0.000000
siesta:     28  -28.144502 -655.497332    0.000000
siesta:     29   27.133854    4.782674    0.000000
siesta:     30   31.667028 -553.631320    0.000000
siesta:     31    1.407327   -0.723309    0.000000
siesta:     32   -2.280392    0.302948    0.000000
siesta:     33  -25.658659    9.045023    0.000000
siesta:     34  -29.956691 -656.839145    0.000000
siesta:     35   -2.564717  548.911250    0.000000
siesta:     36    2.426514 -121.471729    0.000000
siesta:     37   20.534515  551.713168    0.000000
siesta:     38   27.504936   -4.145359    0.000000
siesta:     39   -3.043111   -0.454334    0.000000
siesta:     40    2.245307    0.636412    0.000000
siesta:     41   -1.449778   -0.650300    0.000000
siesta:     42    0.616289   -1.114862    0.000000
siesta:     43   -0.826173    4.093063    0.000000
siesta:     44   -1.394470   -2.118003    0.000000
siesta:     45  -18.852131  661.137802    0.000000
siesta:     46    5.302643 -123.834881    0.000000
siesta:     47    7.204657  670.600422    0.000000
siesta:     48    5.503826 -125.352226    0.000000
siesta:     49   18.344596  678.093690    0.000000
siesta:     50   25.184423   -9.948781    0.000000
siesta:     51    2.174061   -1.339392    0.000000
siesta:     52    0.703502    0.080332    0.000000
siesta:     53    1.647031   -1.138039    0.000000
siesta:     54   -0.554302   -0.757579    0.000000
siesta:     55    0.533209    2.328623    0.000000
siesta:     56    1.373617   -0.720413    0.000000
siesta:     57   -1.140888    0.058516    0.000000
siesta:     58    1.017347    0.037039    0.000000
siesta:     59   -0.363285    0.191065    0.000000
siesta:     60   -1.357559   -0.002520    0.000000
siesta:     61   -0.371344    1.011597    0.000000
siesta:     62   -0.498324   -0.057218    0.000000
siesta:     63    0.565419   -0.875117    0.000000
siesta:     64   -1.140748   -2.543760    0.000000
siesta:     65   -0.065050   -0.238621    0.000000
siesta:     66   16.110653 -574.076107    0.000000
siesta:     67   -0.829211    0.317795    0.000000
siesta:     68   -0.645370   -1.892040    0.000000
siesta:     69   24.562029    4.641034    0.000000
siesta:     70   24.374617 -563.977244    0.000000
siesta:     71   -8.423790  120.679835    0.000000
siesta:     72  -11.407682 -640.136415    0.000000
siesta: ----------------------------------------
siesta:    Tot   -0.268715    0.091633    0.000000

siesta: Stress tensor (static) (eV/Ang**3):
siesta:    -0.396404    0.005078    0.000000
siesta:     0.005078   -2.062007    0.000000
siesta:     0.000000    0.000000   -0.000009

siesta: Cell volume =       1893.226884 Ang**3

siesta: Pressure (static):
siesta:                Solid            Molecule  Units
siesta:           0.00892511          0.14624526  Ry/Bohr**3
siesta:           0.81947346         13.42774281  eV/Ang**3
siesta:        1312.95541871      21513.84832458  kBar
(Free)E+ p_basis*V_orbitals  =      -13155.840469
(Free)Eharris+ p_basis*V_orbitals  =      -13155.843825

siesta: Electric dipole (a.u.)  =    0.000000    0.000000    0.000000
siesta: Electric dipole (Debye) =    0.000000    0.000000    0.000000

* Maximum dynamic memory allocated : Node    0 =   197 MB
* Maximum dynamic memory allocated : Node    1 =    70 MB
* Maximum dynamic memory allocated : Node    2 =    74 MB
* Maximum dynamic memory allocated : Node    3 =   188 MB
* Maximum dynamic memory allocated : Node    4 =   185 MB
* Maximum dynamic memory allocated : Node    5 =    71 MB
* Maximum dynamic memory allocated : Node    6 =    73 MB
* Maximum dynamic memory allocated : Node    7 =   169 MB

* Maximum memory occured during matrixMtoO                    

timer: CPU execution times:
timer:  Routine       Calls   Time/call    Tot.time        %
timer:  siesta            1  161254.609  161254.609   100.00
timer:  Setup             1       3.917       3.917     0.00
timer:  bands             3     268.765     806.295     0.50
timer:  writewave         1       0.042       0.042     0.00
timer:  KSV_init          1       0.006       0.006     0.00
timer:  IterMD            1  160438.661  160438.661    99.49
timer:  hsparse           1       0.235       0.235     0.00
timer:  overlap           1       7.707       7.707     0.00
timer:  IterSCF          40    4006.875  160274.987    99.39
timer:  kinefsm           2       3.955       7.909     0.00
timer:  nlefsm            2      18.382      36.763     0.02
timer:  DHSCF            41      83.641    3429.274     2.13
timer:  DHSCF1            1       0.760       0.760     0.00
timer:  DHSCF2            1      33.093      33.093     0.02
timer:  REORD           330       0.010       3.278     0.00
timer:  POISON           42       2.243      94.190     0.06
timer:  DHSCF3           41      82.047    3363.946     2.09
timer:  rhoofd           41      16.278     667.409     0.41
timer:  cellXC           41       3.477     142.556     0.09
timer:  vmat             41      39.292    1610.989     1.00
timer:  MolMec            2       0.000       0.000     0.00
timer:  diagon           40    3921.436  156857.459    97.27
timer:  c-eigval       9361       6.672   62454.872    38.73
timer:  c-buildHS      9361       0.111    1035.228     0.64
timer:  cdiag         18601       6.869  127763.023    79.23
timer:  cdiag1        18601       0.425    7909.680     4.91
timer:  cdiag2        18601       1.911   35545.501    22.04
timer:  cdiag3        18601       3.949   73453.155    45.55
timer:  cdiag4        18601       0.205    3814.886     2.37
timer:  c-eigvec       9240       7.240   66899.055    41.49
timer:  c-buildD       9240       3.058   28259.938    17.53
timer:  DHSCF4            1      29.277      29.277     0.02
timer:  dfscf             1      27.480      27.480     0.02
timer:  overfsm           1       0.398       0.398     0.00
timer:  optical           1       5.035       5.035     0.00
  

elaps: ELAPSED times:
elaps:  Routine       Calls   Time/call    Tot.time        %
elaps:  siesta            1   20177.931   20177.931   100.00
elaps:  Setup             1       0.506       0.506     0.00
elaps:  bands             3      33.647     100.942     0.50
elaps:  writewave         1       0.006       0.006     0.00
elaps:  KSV_init          1       0.001       0.001     0.00
elaps:  IterMD            1   20075.816   20075.816    99.49
elaps:  hsparse           1       0.029       0.029     0.00
elaps:  overlap           1       0.965       0.965     0.00
elaps:  IterSCF          40     501.386   20055.456    99.39
elaps:  kinefsm           2       0.493       0.986     0.00
elaps:  nlefsm            2       2.362       4.724     0.02
elaps:  DHSCF            41      10.561     433.020     2.15
elaps:  DHSCF1            1       0.100       0.100     0.00
elaps:  DHSCF2            1       4.135       4.135     0.02
elaps:  REORD           330       0.001       0.440     0.00
elaps:  POISON           42       0.281      11.788     0.06
elaps:  DHSCF3           41      10.265     420.845     2.09
elaps:  rhoofd           41       4.576     187.625     0.93
elaps:  cellXC           41       0.434      17.799     0.09
elaps:  vmat             41       4.915     201.518     1.00
elaps:  MolMec            2       0.000       0.000     0.00
elaps:  diagon           40     490.674   19626.977    97.27
elaps:  c-eigval       9361       0.835    7814.216    38.73
elaps:  c-buildHS      9361       0.015     140.400     0.70
elaps:  cdiag         18601       0.863   16053.500    79.56
elaps:  cdiag1        18601       0.053     983.807     4.88
elaps:  cdiag2        18601       0.239    4448.013    22.04
elaps:  cdiag3        18601       0.495    9202.691    45.61
elaps:  cdiag4        18601       0.026     479.255     2.38
elaps:  c-eigvec       9240       0.917    8476.101    42.01
elaps:  c-buildD       9240       0.371    3430.223    17.00
elaps:  DHSCF4            1       7.647       7.647     0.04
elaps:  dfscf             1       7.248       7.248     0.04
elaps:  overfsm           1       0.048       0.048     0.00
elaps:  optical           1       0.001       0.001     0.00
  
>> End of run:  24-APR-2016   2:19:09
