Siesta Version:                                        siesta-3.2-pl-3
Architecture  : x86_64-unknown-linux-gnu--unknown
Compiler flags: mpiifort -g -O2 -fPIC -xSSE4.1 -fp-model source -shared-intel 
PARALLEL version

* Running on   12 nodes in parallel
>> Start of run:   4-MAY-2016  22:55:10

                           ***********************       
                           *  WELCOME TO SIESTA  *       
                           ***********************       

reinit: Reading from standard input
************************** Dump of input data file ****************************
#(1) General system descriptors
SystemName            GRP_doping    # Descriptive name of the system
SystemLabel           GRP_doping    # Short name for naming files
%include STRUCT.fdf
%include KPT.fdf
%include BASIS.fdf
#%include TS.fdf # for transiesta calculation
#(4) DFT, Grid, SCF
XC.functional         GGA           # LDA or GGA (default = LDA)
XC.authors            PBE           # CA (Ceperley-Aldr) = PZ
                                    #    (Perdew-Zunger) - LDA - Default
                                    # PW92 (Perdew-Wang-92) - LDA
                                    # PBE (Perdew-Burke-Ernzerhof) - GGA
MeshCutoff            200.000000    Ry      # Default: 50.0 Ry ~ 0.444 Bohr
                                    #         100.0 Ry ~ 0.314 Bohr
MaxSCFIterations      500           # Default: 50
DM.MixingWeight       0.05          # Default: 0.25
DM.NumberPulay        10            # Default: 0
DM.PulayOnFile        F             # SystemLabel.P1, SystemLabel.P2
DM.Tolerance          1.d-4         # Default: 1.d-4
DM.UseSaveDM          .true.        # because of the bug
SCFMustConverge       .true.
NeglNonOverlapInt     F             # Default: F
#(5) Eigenvalue problem: order-N or diagonalization
SolutionMethod        Diagon        # or Transiesta
ElectronicTemperature 300.0 K       # Default: 300.0 K
#(6) Molecular dynamics and relaxations
#MD.TypeOfRun          CG            # Type of dynamics:
#MD.VariableCell       F
#MD.NumCGsteps         0           # 0 for single-point / 100 for gopt
#MD.MaxCGDispl         0.2 Bohr      # Default: 0.2 Bohr
#MD.MaxForceTol        0.02 eV/Ang   # Default: 0.04 eV/Ang
#MD.MaxStressTol       1.0 GPa       # Default: 1.0 GPa
# Geometry Constraints
#%block GeometryConstraints
#	position from 1 to 44
#%endblock GeometryConstraints
BandLinesScale   pi/a
%block BandLines
 1   0.00000000  0.00000000  0.00000000
50   0.00000000  0.07809418  0.00000000
50   0.04509075  0.07809242  0.00000000
20   0.00000000  0.00000000  0.00000000
%endblock BandLines
************************** End of input data file *****************************

reinit: -----------------------------------------------------------------------
reinit: System Name: GRP_doping
reinit: -----------------------------------------------------------------------
reinit: System Label: GRP_doping                                                  
reinit: -----------------------------------------------------------------------

initatom: Reading input for the pseudopotentials and atomic orbitals ----------
 Species number:            1  Label: N Atomic number:           7
 Species number:            2  Label: C Atomic number:           6
Ground state valence configuration:   2s02  2p03
Reading pseudopotential information in formatted form from N.psf

Valence configuration for pseudopotential generation:
2s( 2.00) rc: 1.48
2p( 3.00) rc: 1.48
3d( 0.00) rc: 1.48
4f( 0.00) rc: 1.48
Ground state valence configuration:   2s02  2p02
Reading pseudopotential information in formatted form from C.psf

Valence configuration for pseudopotential generation:
2s( 2.00) rc: 1.54
2p( 2.00) rc: 1.54
3d( 0.00) rc: 1.54
4f( 0.00) rc: 1.54
For N, standard SIESTA heuristics set lmxkb to 3
 (one more than the basis l, including polarization orbitals).
Use PS.lmax or PS.KBprojectors blocks to override.
For C, standard SIESTA heuristics set lmxkb to 3
 (one more than the basis l, including polarization orbitals).
Use PS.lmax or PS.KBprojectors blocks to override.

<basis_specs>
===============================================================================
N                    Z=   7    Mass=  14.010        Charge= 0.17977+309
Lmxo=1 Lmxkb= 3    BasisType=split      Semic=F
L=0  Nsemic=0  Cnfigmx=2
          n=1  nzeta=2  polorb=0
            splnorm:   0.15000    
               vcte:    0.0000    
               rinn:    0.0000    
                rcs:    0.0000      0.0000    
            lambdas:    1.0000      1.0000    
L=1  Nsemic=0  Cnfigmx=2
          n=1  nzeta=2  polorb=1
            splnorm:   0.15000    
               vcte:    0.0000    
               rinn:    0.0000    
                rcs:    0.0000      0.0000    
            lambdas:    1.0000      1.0000    
-------------------------------------------------------------------------------
L=0  Nkbl=1  erefs: 0.17977+309
L=1  Nkbl=1  erefs: 0.17977+309
L=2  Nkbl=1  erefs: 0.17977+309
L=3  Nkbl=1  erefs: 0.17977+309
===============================================================================
</basis_specs>

atom: Called for N                     (Z =   7)

read_vps: Pseudopotential generation method:
read_vps: ATM3      Troullier-Martins                       
Total valence charge:    5.00000

read_vps: Pseudopotential includes a core correction:
read_vps: Pseudo-core for xc-correction

xc_check: Exchange-correlation functional:
xc_check: GGA Perdew, Burke & Ernzerhof 1996
V l=0 = -2*Zval/r beyond r=  1.4606
V l=1 = -2*Zval/r beyond r=  1.4606
V l=2 = -2*Zval/r beyond r=  1.4606
V l=3 = -2*Zval/r beyond r=  1.4606
All V_l potentials equal beyond r=  1.4606
This should be close to max(r_c) in ps generation
All pots = -2*Zval/r beyond r=  1.4606

VLOCAL1: 99.0% of the norm of Vloc inside     20.347 Ry
VLOCAL1: 99.9% of the norm of Vloc inside     46.372 Ry
atom: Maximum radius for 4*pi*r*r*local-pseudopot. charge    1.76189
atom: Maximum radius for r*vlocal+2*Zval:    1.53550
GHOST: No ghost state for L =  0
GHOST: No ghost state for L =  1
GHOST: No ghost state for L =  2
GHOST: No ghost state for L =  3

KBgen: Kleinman-Bylander projectors: 
   l= 0   rc=  1.634559   el= -1.363963   Ekb=  5.296955   kbcos=  0.335621
   l= 1   rc=  1.614250   el= -0.521451   Ekb= -5.259161   kbcos= -0.433408
   l= 2   rc=  1.718383   el=  0.001991   Ekb= -1.271464   kbcos= -0.007566
   l= 3   rc=  1.761893   el=  0.003093   Ekb= -0.494769   kbcos= -0.001015

KBgen: Total number of  Kleinman-Bylander projectors:   16
atom: -------------------------------------------------------------------------

atom: SANKEY-TYPE ORBITALS:
atom: Selected multiple-zeta basis: split     

SPLIT: Orbitals with angular momentum L= 0

SPLIT: Basis orbitals for state 2s

SPLIT: PAO cut-off radius determined from an
SPLIT: energy shift=  0.007350 Ry

   izeta = 1
                 lambda =    1.000000
                     rc =    4.071465
                 energy =   -1.356470
                kinetic =    1.176977
    potential(screened) =   -2.533447
       potential(ionic) =   -8.057990

   izeta = 2
                 rmatch =    2.905100
              splitnorm =    0.150000
                 energy =   -1.158343
                kinetic =    1.813009
    potential(screened) =   -2.971352
       potential(ionic) =   -8.901931

SPLIT: Orbitals with angular momentum L= 1

SPLIT: Basis orbitals for state 2p

SPLIT: PAO cut-off radius determined from an
SPLIT: energy shift=  0.007350 Ry

   izeta = 1
                 lambda =    1.000000
                     rc =    4.972977
                 energy =   -0.513884
                kinetic =    3.441732
    potential(screened) =   -3.955616
       potential(ionic) =   -9.287901

   izeta = 2
                 rmatch =    3.054066
              splitnorm =    0.150000
                 energy =   -0.318226
                kinetic =    5.125348
    potential(screened) =   -5.443573
       potential(ionic) =  -11.380999

POLgen: Perturbative polarization orbital with L=  2

POLgen: Polarization orbital for state 2p

   izeta = 1
                     rc =    4.972977
                 energy =    1.607437
                kinetic =    3.268125
    potential(screened) =   -1.660688
       potential(ionic) =   -5.973652
atom: Total number of Sankey-type orbitals: 13

atm_pop: Valence configuration (for local Pseudopot. screening):
 2s( 2.00)                                                            
 2p( 3.00)                                                            
Vna: chval, zval:    5.00000   5.00000

Vna:  Cut-off radius for the neutral-atom potential:   4.972977
comcore: Pseudo-core radius Rcore=  1.554824

atom: _________________________________________________________________________

<basis_specs>
===============================================================================
C                    Z=   6    Mass=  12.010        Charge= 0.17977+309
Lmxo=1 Lmxkb= 3    BasisType=split      Semic=F
L=0  Nsemic=0  Cnfigmx=2
          n=1  nzeta=2  polorb=0
            splnorm:   0.15000    
               vcte:    0.0000    
               rinn:    0.0000    
                rcs:    0.0000      0.0000    
            lambdas:    1.0000      1.0000    
L=1  Nsemic=0  Cnfigmx=2
          n=1  nzeta=2  polorb=1
            splnorm:   0.15000    
               vcte:    0.0000    
               rinn:    0.0000    
                rcs:    0.0000      0.0000    
            lambdas:    1.0000      1.0000    
-------------------------------------------------------------------------------
L=0  Nkbl=1  erefs: 0.17977+309
L=1  Nkbl=1  erefs: 0.17977+309
L=2  Nkbl=1  erefs: 0.17977+309
L=3  Nkbl=1  erefs: 0.17977+309
===============================================================================
</basis_specs>

atom: Called for C                     (Z =   6)

read_vps: Pseudopotential generation method:
read_vps: ATM3      Troullier-Martins                       
Total valence charge:    4.00000

read_vps: Pseudopotential includes a core correction:
read_vps: Pseudo-core for xc-correction

xc_check: Exchange-correlation functional:
xc_check: GGA Perdew, Burke & Ernzerhof 1996
V l=0 = -2*Zval/r beyond r=  1.5227
V l=1 = -2*Zval/r beyond r=  1.5227
V l=2 = -2*Zval/r beyond r=  1.5227
V l=3 = -2*Zval/r beyond r=  1.5038
All V_l potentials equal beyond r=  1.5227
This should be close to max(r_c) in ps generation
All pots = -2*Zval/r beyond r=  1.5227

VLOCAL1: 99.0% of the norm of Vloc inside     18.722 Ry
VLOCAL1: 99.9% of the norm of Vloc inside     42.668 Ry
atom: Maximum radius for 4*pi*r*r*local-pseudopot. charge    1.83678
atom: Maximum radius for r*vlocal+2*Zval:    1.58088
GHOST: No ghost state for L =  0
GHOST: No ghost state for L =  1
GHOST: No ghost state for L =  2
GHOST: No ghost state for L =  3

KBgen: Kleinman-Bylander projectors: 
   l= 0   rc=  1.704034   el= -1.009801   Ekb=  5.335044   kbcos=  0.316824
   l= 1   rc=  1.704034   el= -0.388707   Ekb= -3.785862   kbcos= -0.366464
   l= 2   rc=  1.791422   el=  0.001971   Ekb= -0.970471   kbcos= -0.009212
   l= 3   rc=  1.859892   el=  0.003065   Ekb= -0.399525   kbcos= -0.001223

KBgen: Total number of  Kleinman-Bylander projectors:   16
atom: -------------------------------------------------------------------------

atom: SANKEY-TYPE ORBITALS:
atom: Selected multiple-zeta basis: split     

SPLIT: Orbitals with angular momentum L= 0

SPLIT: Basis orbitals for state 2s

SPLIT: PAO cut-off radius determined from an
SPLIT: energy shift=  0.007350 Ry

   izeta = 1
                 lambda =    1.000000
                     rc =    4.632753
                 energy =   -1.002270
                kinetic =    0.855760
    potential(screened) =   -1.858031
       potential(ionic) =   -5.417575

   izeta = 2
                 rmatch =    3.431921
              splitnorm =    0.150000
                 energy =   -0.867111
                kinetic =    1.300804
    potential(screened) =   -2.167915
       potential(ionic) =   -5.962684

SPLIT: Orbitals with angular momentum L= 1

SPLIT: Basis orbitals for state 2p

SPLIT: PAO cut-off radius determined from an
SPLIT: energy shift=  0.007350 Ry

   izeta = 1
                 lambda =    1.000000
                     rc =    5.658549
                 energy =   -0.381140
                kinetic =    2.399701
    potential(screened) =   -2.780841
       potential(ionic) =   -6.206085

   izeta = 2
                 rmatch =    3.653288
              splitnorm =    0.150000
                 energy =   -0.249149
                kinetic =    3.542762
    potential(screened) =   -3.791911
       potential(ionic) =   -7.581078

POLgen: Perturbative polarization orbital with L=  2

POLgen: Polarization orbital for state 2p

   izeta = 1
                     rc =    5.658549
                 energy =    1.109913
                kinetic =    2.304789
    potential(screened) =   -1.194876
       potential(ionic) =   -4.013592
atom: Total number of Sankey-type orbitals: 13

atm_pop: Valence configuration (for local Pseudopot. screening):
 2s( 2.00)                                                            
 2p( 2.00)                                                            
Vna: chval, zval:    4.00000   4.00000

Vna:  Cut-off radius for the neutral-atom potential:   5.658549
comcore: Pseudo-core radius Rcore=  1.791422

atom: _________________________________________________________________________

prinput: Basis input ----------------------------------------------------------

PAO.BasisType split     

%block ChemicalSpeciesLabel
    1    7 N                       # Species index, atomic number, species label
    2    6 C                       # Species index, atomic number, species label
%endblock ChemicalSpeciesLabel

%block PAO.Basis                 # Define Basis set
N                     2                    # Species label, number of l-shells
 n=2   0   2                         # n, l, Nzeta 
   4.071      2.905   
   1.000      1.000   
 n=2   1   2 P   1                   # n, l, Nzeta, Polarization, NzetaPol
   4.973      3.054   
   1.000      1.000   
C                     2                    # Species label, number of l-shells
 n=2   0   2                         # n, l, Nzeta 
   4.633      3.432   
   1.000      1.000   
 n=2   1   2 P   1                   # n, l, Nzeta, Polarization, NzetaPol
   5.659      3.653   
   1.000      1.000   
%endblock PAO.Basis

prinput: ----------------------------------------------------------------------

coor:   Atomic-coordinates input format  =     Fractional

siesta: Atomic coordinates (Bohr) and species
siesta:      4.63094  13.34970   0.00000  1        1
siesta:     -0.02582  13.34970   0.00000  1        2
siesta:      2.30256  14.69411   0.00000  1        3
siesta:      6.95932  25.44831   0.00000  1        4
siesta:     -2.35420  14.69411   0.00000  1        5
siesta:     -2.35420  17.38257   0.00000  1        6
siesta:     -0.02582  21.41544   0.00000  1        7
siesta:     -2.35420  22.75985   0.00000  1        8
siesta:     -2.35420  25.44831   0.00000  1        9
siesta:     -7.01096  25.44831   0.00000  1       10
siesta:      4.63094  26.79272   0.00000  1       11
siesta:      4.63094  29.48119   0.00000  1       12
siesta:     -0.02582  29.48119   0.00000  1       13
siesta:     -4.68258  26.79272   0.00000  1       14
siesta:      2.30256  30.82560   0.00000  1       15
siesta:     -0.02582   2.59549   0.00000  2       16
siesta:     -0.02582   5.28395   0.00000  2       17
siesta:     -2.35420  38.89134   0.00000  2       18
siesta:     -2.35420  41.57980   0.00000  2       19
siesta:      2.30256  38.89134   0.00000  2       20
siesta:      2.30256  41.57980   0.00000  2       21
siesta:      4.63094  34.85847   0.00000  2       22
siesta:      4.63094  37.54693   0.00000  2       23
siesta:      6.95932  30.82560   0.00000  2       24
siesta:      6.95932  33.51406   0.00000  2       25
siesta:      9.28770  26.79272   0.00000  2       26
siesta:      9.28770  29.48119   0.00000  2       27
siesta:     -4.68258  34.85847   0.00000  2       28
siesta:     -4.68258  37.54693   0.00000  2       29
siesta:      2.30256   6.62836   0.00000  2       30
siesta:      2.30256   9.31683   0.00000  2       31
siesta:      4.63094  10.66124   0.00000  2       32
siesta:      6.95932  14.69411   0.00000  2       33
siesta:      6.95932  17.38257   0.00000  2       34
siesta:      9.28770  18.72698   0.00000  2       35
siesta:      9.28770  21.41544   0.00000  2       36
siesta:     11.61608  22.75985   0.00000  2       37
siesta:     11.61608  25.44831   0.00000  2       38
siesta:     -2.35420   6.62836   0.00000  2       39
siesta:     -2.35420   9.31683   0.00000  2       40
siesta:     -0.02582  10.66124   0.00000  2       41
siesta:      2.30256  17.38257   0.00000  2       42
siesta:      4.63094  18.72698   0.00000  2       43
siesta:      4.63094  21.41544   0.00000  2       44
siesta:      6.95932  22.75985   0.00000  2       45
siesta:     -4.68258  10.66124   0.00000  2       46
siesta:     -4.68258  13.34970   0.00000  2       47
siesta:     -0.02582  18.72698   0.00000  2       48
siesta:      2.30256  22.75985   0.00000  2       49
siesta:      2.30256  25.44831   0.00000  2       50
siesta:     -7.01096  14.69411   0.00000  2       51
siesta:     -7.01096  17.38257   0.00000  2       52
siesta:     -4.68258  18.72698   0.00000  2       53
siesta:     -4.68258  21.41544   0.00000  2       54
siesta:     -9.33934  18.72698   0.00000  2       55
siesta:     -9.33934  21.41544   0.00000  2       56
siesta:     -7.01096  22.75985   0.00000  2       57
siesta:    -11.66772  22.75985   0.00000  2       58
siesta:    -11.66772  25.44831   0.00000  2       59
siesta:     -9.33934  26.79272   0.00000  2       60
siesta:     -9.33934  29.48119   0.00000  2       61
siesta:     -0.02582  26.79272   0.00000  2       62
siesta:     -4.68258  29.48119   0.00000  2       63
siesta:      2.30256  33.51406   0.00000  2       64
siesta:     -2.35420  30.82560   0.00000  2       65
siesta:     -2.35420  33.51406   0.00000  2       66
siesta:     -7.01096  30.82560   0.00000  2       67
siesta:     -7.01096  33.51406   0.00000  2       68
siesta:     -0.02582  34.85847   0.00000  2       69
siesta:     -0.02582  37.54693   0.00000  2       70
siesta:     -0.02582  42.92421   0.00000  2       71
siesta:     -0.02582  45.61267   0.00000  2       72

siesta: System type = slab      

initatomlists: Number of atoms, orbitals, and projectors:     72   936  1152

siesta: ******************** Simulation parameters ****************************
siesta:
siesta: The following are some of the parameters of the simulation.
siesta: A complete list of the parameters used, including default values,
siesta: can be found in file out.fdf
siesta:
redata: Non-Collinear-spin run           =     F
redata: SpinPolarized (Up/Down) run      =     F
redata: Number of spin components        =     1
redata: Long output                      =     F
redata: Number of Atomic Species         =        2
redata: Charge density info will appear in .RHO file
redata: Write Mulliken Pop.              =     NO
redata: Mesh Cutoff                      =   200.0000  Ry
redata: Net charge of the system         =     0.0000 |e|
redata: Max. number of SCF Iter          =      500
redata: SCF convergence failure will abort job
redata: Performing Pulay mixing using    =    10 iterations
redata: Mix DM in first SCF step ?       =     F
redata: Write Pulay info on disk?        =     F
redata: Discard 1st Pulay DM after  kick =     F
redata: New DM Mixing Weight             =     0.0500
redata: New DM Occupancy tolerance       = 0.000000000001
redata: No kicks to SCF
redata: DM Mixing Weight for Kicks       =     0.5000
redata: DM Tolerance for SCF             =     0.000100
redata: Require Energy convergence for SCF =     F
redata: DM Energy tolerance for SCF      =     0.000100 eV
redata: Require Harris convergence for SCF =     F
redata: DM Harris energy tolerance for SCF =     0.000100 eV
redata: Using Saved Data (generic)   =     F
redata: Use continuation files for DM    =     T
redata: Neglect nonoverlap interactions  =     F
redata: Method of Calculation            =     Diagonalization
redata: Divide and Conquer               =     T
redata: Electronic Temperature           =     0.0019  Ry
redata: Fix the spin of the system       =     F
redata: Dynamics option                  =     Verlet MD run
redata: Initial MD time step             =        1
redata:   Final MD time step             =        1
redata: Length of MD time step           =     1.0000  fs
redata: Initial Temperature of MD run    =     0.0000  K
redata: Perform a MD quench              =     F
redata: ***********************************************************************
Total number of electrons:   303.000000
Total ionic charge:   303.000000

* ProcessorY, Blocksize:    3  24

k-point displ. along   1 input, could be:     0.50    0.00
k-point displ. along   2 input, could be:     0.50    0.00
 Kpoints in:          231 . Kpoints trimmed:          231

siesta: k-grid: Number of k-points =   231
siesta: k-grid: Cutoff (effective) =     5.000 Ang
siesta: k-grid: Supercell and displacements
siesta: k-grid:   21   0   0      0.500
siesta: k-grid:    0  21   0      0.500
siesta: k-grid:    0   0   1      0.000
Naive supercell factors:     2    2    2

superc: Internal auxiliary supercell:     2 x     2 x     2  =       8
superc: Number of atoms, orbitals, and projectors:    576   7488   9216

* Maximum dynamic memory allocated =     4 MB

siesta:                 ==============================
                            Begin MD step =      1
                        ==============================

superc: Internal auxiliary supercell:     2 x     2 x     2  =       8
superc: Number of atoms, orbitals, and projectors:    576   7488   9216

outcell: Unit cell vectors (Ang):
       12.804619    7.392750    0.000000
        0.000000   14.785500    0.000000
        0.000000    0.000000   10.000000

outcell: Cell vector modules (Ang)   :   14.785500   14.785500   10.000000
outcell: Cell angles (23,13,12) (deg):     90.0000     90.0000     60.0000
outcell: Cell volume (Ang**3)        :   1893.2269
New_DM. Step:     1
Initializing Density Matrix...

InitMesh: MESH =   120 x   120 x    90 =     1296000
InitMesh: Mesh cutoff (required, used) =   200.000   223.865 Ry

* Maximum dynamic memory allocated =   134 MB

stepf: Fermi-Dirac step function

siesta: Program's energy decomposition (eV):
siesta: Ebs     =     -6166.480144
siesta: Eions   =     20814.213734
siesta: Ena     =      4878.960510
siesta: Ekin    =      7637.016727
siesta: Enl     =       194.686233
siesta: DEna    =        -0.000015
siesta: DUscf   =         0.000000
siesta: DUext   =         0.000000
siesta: Exc     =     -4544.551244
siesta: eta*DQ  =         0.000000
siesta: Emadel  =         0.000000
siesta: Emeta   =         0.000000
siesta: Emolmec =         0.000000
siesta: Ekinion =         0.000000
siesta: Eharris =    -12293.513966
siesta: Etot    =    -12648.101522
siesta: FreeEng =    -12648.101522

siesta: iscf   Eharris(eV)      E_KS(eV)   FreeEng(eV)   dDmax  Ef(eV)
siesta:    1   -12293.5140   -12648.1015   -12648.1015  5.6421 -6.9831
timer: Routine,Calls,Time,% = IterSCF        1    3016.118  99.60
elaps: Routine,Calls,Wall,% = IterSCF        1     251.940  99.60
siesta:    2   -17268.3404   -11580.0707   -11580.1316 13.1220 -5.3754
siesta:    3   -12269.7371   -12410.9436   -12410.9853  1.7324 -4.5349
siesta:    4   -12188.2052   -12321.3804   -12321.4197  1.2877 -4.4069
siesta:    5   -12157.3323   -12248.9582   -12248.9994  0.9031 -4.1726
siesta:    6   -12145.1708   -12219.2904   -12219.3532  0.8830 -3.9053
siesta:    7   -12131.1069   -12198.4949   -12198.5597  0.6532 -3.9437
siesta:    8   -12129.6151   -12187.2608   -12187.3038  0.6038 -3.9434
siesta:    9   -12128.1935   -12182.2760   -12182.3373  0.5471 -3.9596
siesta:   10   -12127.7619   -12149.9930   -12150.0541  0.3519 -3.8904
siesta:   11   -12127.3019   -12139.9295   -12140.0098  0.2896 -3.8466
siesta:   12   -12126.9701   -12127.7425   -12127.7980  0.3589 -3.8546
siesta:   13   -12126.9802   -12123.5830   -12123.6417  0.3356 -3.8164
siesta:   14   -12126.8749   -12125.7953   -12125.8583  0.2626 -3.8530
siesta:   15   -12126.5779   -12125.8933   -12125.9337  0.1659 -3.8868
siesta:   16   -12126.2428   -12125.4182   -12125.4738  0.1090 -3.8852
siesta:   17   -12126.1147   -12124.3359   -12124.4015  0.0725 -3.8919
siesta:   18   -12126.0588   -12124.6547   -12124.7254  0.0598 -3.9033
siesta:   19   -12126.0271   -12123.9808   -12124.0480  0.0393 -3.8899
siesta:   20   -12126.0113   -12124.3065   -12124.3772  0.0212 -3.8936
siesta:   21   -12126.0071   -12125.0907   -12125.1630  0.0325 -3.8903
siesta:   22   -12126.0025   -12125.4218   -12125.4936  0.0300 -3.8935
siesta:   23   -12126.0016   -12125.5921   -12125.6634  0.0150 -3.8980
siesta:   24   -12125.9991   -12125.2573   -12125.3277  0.0077 -3.8948
siesta:   25   -12125.9984   -12125.3141   -12125.3862  0.0053 -3.8943
siesta:   26   -12125.9975   -12125.5465   -12125.6184  0.0032 -3.8949
siesta:   27   -12125.9970   -12125.7573   -12125.8295  0.0024 -3.8958
siesta:   28   -12125.9970   -12125.9293   -12126.0017  0.0018 -3.8964
siesta:   29   -12125.9969   -12125.9769   -12126.0492  0.0013 -3.8964
siesta:   30   -12125.9969   -12126.0010   -12126.0733  0.0009 -3.8967
siesta:   31   -12125.9969   -12126.0042   -12126.0764  0.0007 -3.8967
siesta:   32   -12125.9969   -12126.0301   -12126.1023  0.0006 -3.8968
siesta:   33   -12125.9969   -12126.0305   -12126.1027  0.0004 -3.8968
siesta:   34   -12125.9969   -12126.0359   -12126.1081  0.0005 -3.8967
siesta:   35   -12125.9969   -12126.0213   -12126.0936  0.0004 -3.8965
siesta:   36   -12125.9969   -12126.0102   -12126.0824  0.0003 -3.8964
siesta:   37   -12125.9969   -12126.0054   -12126.0776  0.0002 -3.8964
siesta:   38   -12125.9969   -12126.0055   -12126.0778  0.0001 -3.8964

siesta: E_KS(eV) =           -12126.0058

siesta: E_KS - E_eggbox =    -12126.0058

siesta: Atomic forces (eV/Ang):
----------------------------------------
   Tot    0.024862   -0.257756    0.000000
----------------------------------------
   Max  686.231004
   Res  172.950916    sqrt( Sum f_i^2 / 3N )
----------------------------------------
   Max  686.231004    constrained

Stress-tensor-Voigt (kbar):     -698.44    -3066.09       -0.06       -8.94        0.00        0.00
(Free)E + p*V (eV/cell)   -10643.2710
Target enthalpy (eV/cell)   -12126.0780

siesta: Stress tensor (static) (eV/Ang**3):
        -0.435930   -0.005579    0.000000
        -0.005579   -1.913680    0.000000
         0.000000    0.000000   -0.000040

siesta: Pressure (static):       1254.86518791  kBar

siesta: Stress tensor (total) (eV/Ang**3):
        -0.435930   -0.005579    0.000000
        -0.005579   -1.913680    0.000000
         0.000000    0.000000   -0.000040

siesta: Pressure (total):       1254.86518791  kBar

siesta: Temp_ion =       0.000 K

* Maximum dynamic memory allocated =   147 MB
Computing bands...

siesta: Program's energy decomposition (eV):
siesta: Ebs     =     -4907.786678
siesta: Eions   =     20814.213734
siesta: Ena     =      4878.960510
siesta: Ekin    =     10709.421978
siesta: Enl     =     -1490.863909
siesta: DEna    =      -799.873866
siesta: DUscf   =       110.049704
siesta: DUext   =         0.000000
siesta: Exc     =     -4719.486475
siesta: eta*DQ  =         0.000000
siesta: Emadel  =         0.000000
siesta: Emeta   =         0.000000
siesta: Emolmec =         0.000000
siesta: Ekinion =         0.000000
siesta: Eharris =    -12125.996892
siesta: Etot    =    -12126.005792
siesta: FreeEng =    -12126.078033

siesta: Final energy (eV):
siesta:  Band Struct. =   -4907.786678
siesta:       Kinetic =   10709.421978
siesta:       Hartree =   34857.963870
siesta:    Ext. field =       0.000000
siesta:   Exch.-corr. =   -4719.486475
siesta:  Ion-electron =  -79969.340216
siesta:       Ion-ion =   26995.435052
siesta:       Ekinion =       0.000000
siesta:         Total =  -12126.005792

siesta: Atomic forces (eV/Ang):
siesta:      1   32.641856  -12.128255    0.000000
siesta:      2    0.299180 -120.804230    0.000000
siesta:      3    7.320753  686.231004    0.000000
siesta:      4    0.154182   -1.850790    0.000000
siesta:      5  -10.475329  672.360173    0.000000
siesta:      6  -26.119804   -1.357530    0.000000
siesta:      7    2.044707   -0.952695    0.000000
siesta:      8   -1.445250   -0.882728    0.000000
siesta:      9   -0.701896    0.857324    0.000000
siesta:     10    0.253997   -1.381247    0.000000
siesta:     11   -0.474329   -1.388365    0.000000
siesta:     12    2.116733   -2.578502    0.000000
siesta:     13  -19.639262 -684.857927    0.000000
siesta:     14   -0.547138    0.094902    0.000000
siesta:     15   35.861386   14.730736    0.000000
siesta:     16   11.044054  647.253792    0.000000
siesta:     17    1.248686 -119.938660    0.000000
siesta:     18    0.588474  118.199141    0.000000
siesta:     19  -10.287494 -656.370683    0.000000
siesta:     20    1.052763  112.667197    0.000000
siesta:     21   14.594746 -650.618626    0.000000
siesta:     22   25.969196    6.590044    0.000000
siesta:     23   35.435031 -549.082800    0.000000
siesta:     24    1.956308    0.030830    0.000000
siesta:     25   -3.040992    0.615136    0.000000
siesta:     26    1.276660    1.599062    0.000000
siesta:     27   -1.213346    0.496571    0.000000
siesta:     28  -25.699004    6.373577    0.000000
siesta:     29  -34.680965 -548.922571    0.000000
siesta:     30   20.439156  552.749147    0.000000
siesta:     31   -0.979007 -125.630604    0.000000
siesta:     32   28.472698  549.001598    0.000000
siesta:     33   -1.477247   -0.944023    0.000000
siesta:     34    1.096712   -1.237348    0.000000
siesta:     35   -0.753473   -0.224198    0.000000
siesta:     36    1.801764   -2.046915    0.000000
siesta:     37   -0.167968    6.505158    0.000000
siesta:     38   -0.806368   -5.813961    0.000000
siesta:     39  -15.036517  547.499178    0.000000
siesta:     40    2.775957 -126.894532    0.000000
siesta:     41   -3.078537  537.366350    0.000000
siesta:     42   23.749652   -5.540024    0.000000
siesta:     43   -1.635977    2.698403    0.000000
siesta:     44   -0.453935   -0.497322    0.000000
siesta:     45   -0.741454    1.939095    0.000000
siesta:     46  -33.439378  548.876526    0.000000
siesta:     47  -27.126816   -9.343981    0.000000
siesta:     48   16.820111  576.491377    0.000000
siesta:     49   -0.343690    0.673583    0.000000
siesta:     50    0.706754    0.358445    0.000000
siesta:     51    2.020593   -1.571485    0.000000
siesta:     52   -1.462756   -0.266902    0.000000
siesta:     53    1.311930    3.612715    0.000000
siesta:     54    0.803061    0.017823    0.000000
siesta:     55    1.303583   -0.205116    0.000000
siesta:     56   -1.370221   -2.144474    0.000000
siesta:     57    0.836107    1.149888    0.000000
siesta:     58    0.108160    6.580291    0.000000
siesta:     59    0.670362   -5.902423    0.000000
siesta:     60   -1.096771    1.890852    0.000000
siesta:     61    0.800974    0.078095    0.000000
siesta:     62    0.284434    1.577584    0.000000
siesta:     63    2.073010   -3.080686    0.000000
siesta:     64   12.365268 -562.530006    0.000000
siesta:     65  -26.950034    9.184710    0.000000
siesta:     66  -23.698355 -561.044011    0.000000
siesta:     67   -2.178055   -0.096839    0.000000
siesta:     68    3.203329    1.865590    0.000000
siesta:     69    1.385314  127.966980    0.000000
siesta:     70   -0.848424 -549.609694    0.000000
siesta:     71    0.896506  117.451523    0.000000
siesta:     72  -19.789494 -546.152001    0.000000
siesta: ----------------------------------------
siesta:    Tot    0.024862   -0.257756    0.000000

siesta: Stress tensor (static) (eV/Ang**3):
siesta:    -0.435930   -0.005579    0.000000
siesta:    -0.005579   -1.913680    0.000000
siesta:     0.000000    0.000000   -0.000040

siesta: Cell volume =       1893.226884 Ang**3

siesta: Pressure (static):
siesta:                Solid            Molecule  Units
siesta:           0.00853023          0.13593524  Ry/Bohr**3
siesta:           0.78321678         12.48111159  eV/Ang**3
siesta:        1254.86518791      19997.16149930  kBar
(Free)E+ p_basis*V_orbitals  =      -12097.484869
(Free)Eharris+ p_basis*V_orbitals  =      -12097.476216

siesta: Electric dipole (a.u.)  =    0.000000    0.000000    0.000000
siesta: Electric dipole (Debye) =    0.000000    0.000000    0.000000

* Maximum dynamic memory allocated : Node    0 =   147 MB
* Maximum dynamic memory allocated : Node    1 =    58 MB
* Maximum dynamic memory allocated : Node    2 =    60 MB
* Maximum dynamic memory allocated : Node    3 =   135 MB
* Maximum dynamic memory allocated : Node    4 =   146 MB
* Maximum dynamic memory allocated : Node    5 =    52 MB
* Maximum dynamic memory allocated : Node    6 =    54 MB
* Maximum dynamic memory allocated : Node    7 =   136 MB
* Maximum dynamic memory allocated : Node    8 =   126 MB
* Maximum dynamic memory allocated : Node    9 =    53 MB
* Maximum dynamic memory allocated : Node   10 =    54 MB
* Maximum dynamic memory allocated : Node   11 =   122 MB

* Maximum memory occured during matrixMtoO                    

timer: CPU execution times:
timer:  Routine       Calls   Time/call    Tot.time        %
timer:  siesta            1  112242.601  112242.601   100.00
timer:  Setup             1       3.303       3.303     0.00
timer:  bands             3     226.673     680.020     0.61
timer:  writewave         1       0.024       0.024     0.00
timer:  KSV_init          1       0.005       0.005     0.00
timer:  IterMD            1  111552.406  111552.406    99.39
timer:  hsparse           1       0.160       0.160     0.00
timer:  overlap           1       7.153       7.153     0.01
timer:  IterSCF          38    2932.358  111429.587    99.28
timer:  kinefsm           2       3.629       7.258     0.01
timer:  nlefsm            2      18.213      36.426     0.03
timer:  DHSCF            39      61.291    2390.342     2.13
timer:  DHSCF1            1       0.903       0.903     0.00
timer:  DHSCF2            1      25.015      25.015     0.02
timer:  REORD           314       0.002       0.739     0.00
timer:  POISON           40       0.448      17.930     0.02
timer:  DHSCF3           39      60.085    2343.304     2.09
timer:  rhoofd           39      12.426     484.596     0.43
timer:  cellXC           39       2.425      94.575     0.08
timer:  vmat             39      28.289    1103.254     0.98
timer:  MolMec            2       0.000       0.000     0.00
timer:  diagon           38    2869.881  109055.494    97.16
timer:  c-eigval       8899       5.608   49909.565    44.47
timer:  c-buildHS      8899       0.033     293.134     0.26
timer:  cdiag         17677       5.707  100882.565    89.88
timer:  cdiag1        17677       0.261    4605.499     4.10
timer:  cdiag2        17677       1.840   32532.109    28.98
timer:  cdiag3        17677       3.400   60103.962    53.55
timer:  cdiag4        17677       0.089    1573.977     1.40
timer:  c-eigvec       8778       5.868   51504.960    45.89
timer:  c-buildD       8778       0.942    8272.975     7.37
timer:  DHSCF4            1      20.858      20.858     0.02
timer:  dfscf             1      19.434      19.434     0.02
timer:  overfsm           1       0.283       0.283     0.00
timer:  optical           1       6.271       6.271     0.01
  

elaps: ELAPSED times:
elaps:  Routine       Calls   Time/call    Tot.time        %
elaps:  siesta            1    9375.573    9375.573   100.00
elaps:  Setup             1       0.276       0.276     0.00
elaps:  bands             3      18.949      56.848     0.61
elaps:  writewave         1       0.002       0.002     0.00
elaps:  KSV_init          1       0.000       0.000     0.00
elaps:  IterMD            1    9317.921    9317.921    99.39
elaps:  hsparse           1       0.016       0.016     0.00
elaps:  overlap           1       0.709       0.709     0.01
elaps:  IterSCF          38     244.938    9307.663    99.28
elaps:  kinefsm           2       0.362       0.724     0.01
elaps:  nlefsm            2       1.597       3.194     0.03
elaps:  DHSCF            39       5.164     201.404     2.15
elaps:  DHSCF1            1       0.077       0.077     0.00
elaps:  DHSCF2            1       2.088       2.088     0.02
elaps:  REORD           314       0.000       0.094     0.00
elaps:  POISON           40       0.038       1.516     0.02
elaps:  DHSCF3           39       5.019     195.749     2.09
elaps:  rhoofd           39       2.191      85.431     0.91
elaps:  cellXC           39       0.202       7.882     0.08
elaps:  vmat             39       2.363      92.176     0.98
elaps:  MolMec            2       0.000       0.000     0.00
elaps:  diagon           38     239.726    9109.582    97.16
elaps:  c-eigval       8899       0.468    4168.870    44.47
elaps:  c-buildHS      8899       0.003      31.042     0.33
elaps:  cdiag         17677       0.472    8345.736    89.02
elaps:  cdiag1        17677       0.021     379.414     4.05
elaps:  cdiag2        17677       0.154    2719.845    29.01
elaps:  cdiag3        17677       0.284    5028.023    53.63
elaps:  cdiag4        17677       0.007     126.035     1.34
elaps:  c-eigvec       8778       0.482    4234.189    45.16
elaps:  c-buildD       8778       0.086     758.864     8.09
elaps:  DHSCF4            1       3.441       3.441     0.04
elaps:  dfscf             1       3.247       3.247     0.03
elaps:  overfsm           1       0.030       0.030     0.00
elaps:  optical           1       0.000       0.000     0.00
  
>> End of run:   5-MAY-2016   1:31:26
