Siesta Version:                                        siesta-3.2-pl-3
Architecture  : x86_64-unknown-linux-gnu--unknown
Compiler flags: mpiifort -g -O2 -fPIC -xSSE4.1 -fp-model source -shared-intel 
PARALLEL version

* Running on    8 nodes in parallel
>> Start of run:  23-APR-2016  22:35:14

                           ***********************       
                           *  WELCOME TO SIESTA  *       
                           ***********************       

reinit: Reading from standard input
************************** Dump of input data file ****************************
#(1) General system descriptors
SystemName            GRP_doping    # Descriptive name of the system
SystemLabel           GRP_doping    # Short name for naming files
%include STRUCT.fdf
%include KPT.fdf
%include BASIS.fdf
#%include TS.fdf # for transiesta calculation
#(4) DFT, Grid, SCF
XC.functional         GGA           # LDA or GGA (default = LDA)
XC.authors            PBE           # CA (Ceperley-Aldr) = PZ
                                    #    (Perdew-Zunger) - LDA - Default
                                    # PW92 (Perdew-Wang-92) - LDA
                                    # PBE (Perdew-Burke-Ernzerhof) - GGA
MeshCutoff            200.000000    Ry      # Default: 50.0 Ry ~ 0.444 Bohr
                                    #         100.0 Ry ~ 0.314 Bohr
MaxSCFIterations      500           # Default: 50
DM.MixingWeight       0.05          # Default: 0.25
DM.NumberPulay        10            # Default: 0
DM.PulayOnFile        F             # SystemLabel.P1, SystemLabel.P2
DM.Tolerance          1.d-4         # Default: 1.d-4
DM.UseSaveDM          .true.        # because of the bug
SCFMustConverge       .true.
NeglNonOverlapInt     F             # Default: F
#(5) Eigenvalue problem: order-N or diagonalization
SolutionMethod        Diagon        # or Transiesta
ElectronicTemperature 300.0 K       # Default: 300.0 K
#(6) Molecular dynamics and relaxations
#MD.TypeOfRun          CG            # Type of dynamics:
#MD.VariableCell       F
#MD.NumCGsteps         0           # 0 for single-point / 100 for gopt
#MD.MaxCGDispl         0.2 Bohr      # Default: 0.2 Bohr
#MD.MaxForceTol        0.02 eV/Ang   # Default: 0.04 eV/Ang
#MD.MaxStressTol       1.0 GPa       # Default: 1.0 GPa
# Geometry Constraints
#%block GeometryConstraints
#	position from 1 to 44
#%endblock GeometryConstraints
BandLinesScale   pi/a
%block BandLines
 1   0.00000000  0.00000000  0.00000000
50   0.00000000  0.07809418  0.00000000
50   0.04509075  0.07809242  0.00000000
20   0.00000000  0.00000000  0.00000000
%endblock BandLines
************************** End of input data file *****************************

reinit: -----------------------------------------------------------------------
reinit: System Name: GRP_doping
reinit: -----------------------------------------------------------------------
reinit: System Label: GRP_doping                                                  
reinit: -----------------------------------------------------------------------

initatom: Reading input for the pseudopotentials and atomic orbitals ----------
 Species number:            1  Label: N Atomic number:           7
 Species number:            2  Label: C Atomic number:           6
Ground state valence configuration:   2s02  2p03
Reading pseudopotential information in formatted form from N.psf

Valence configuration for pseudopotential generation:
2s( 2.00) rc: 1.48
2p( 3.00) rc: 1.48
3d( 0.00) rc: 1.48
4f( 0.00) rc: 1.48
Ground state valence configuration:   2s02  2p02
Reading pseudopotential information in formatted form from C.psf

Valence configuration for pseudopotential generation:
2s( 2.00) rc: 1.54
2p( 2.00) rc: 1.54
3d( 0.00) rc: 1.54
4f( 0.00) rc: 1.54
For N, standard SIESTA heuristics set lmxkb to 3
 (one more than the basis l, including polarization orbitals).
Use PS.lmax or PS.KBprojectors blocks to override.
For C, standard SIESTA heuristics set lmxkb to 3
 (one more than the basis l, including polarization orbitals).
Use PS.lmax or PS.KBprojectors blocks to override.

<basis_specs>
===============================================================================
N                    Z=   7    Mass=  14.010        Charge= 0.17977+309
Lmxo=1 Lmxkb= 3    BasisType=split      Semic=F
L=0  Nsemic=0  Cnfigmx=2
          n=1  nzeta=2  polorb=0
            splnorm:   0.15000    
               vcte:    0.0000    
               rinn:    0.0000    
                rcs:    0.0000      0.0000    
            lambdas:    1.0000      1.0000    
L=1  Nsemic=0  Cnfigmx=2
          n=1  nzeta=2  polorb=1
            splnorm:   0.15000    
               vcte:    0.0000    
               rinn:    0.0000    
                rcs:    0.0000      0.0000    
            lambdas:    1.0000      1.0000    
-------------------------------------------------------------------------------
L=0  Nkbl=1  erefs: 0.17977+309
L=1  Nkbl=1  erefs: 0.17977+309
L=2  Nkbl=1  erefs: 0.17977+309
L=3  Nkbl=1  erefs: 0.17977+309
===============================================================================
</basis_specs>

atom: Called for N                     (Z =   7)

read_vps: Pseudopotential generation method:
read_vps: ATM3      Troullier-Martins                       
Total valence charge:    5.00000

read_vps: Pseudopotential includes a core correction:
read_vps: Pseudo-core for xc-correction

xc_check: Exchange-correlation functional:
xc_check: GGA Perdew, Burke & Ernzerhof 1996
V l=0 = -2*Zval/r beyond r=  1.4606
V l=1 = -2*Zval/r beyond r=  1.4606
V l=2 = -2*Zval/r beyond r=  1.4606
V l=3 = -2*Zval/r beyond r=  1.4606
All V_l potentials equal beyond r=  1.4606
This should be close to max(r_c) in ps generation
All pots = -2*Zval/r beyond r=  1.4606

VLOCAL1: 99.0% of the norm of Vloc inside     20.347 Ry
VLOCAL1: 99.9% of the norm of Vloc inside     46.372 Ry
atom: Maximum radius for 4*pi*r*r*local-pseudopot. charge    1.76189
atom: Maximum radius for r*vlocal+2*Zval:    1.53550
GHOST: No ghost state for L =  0
GHOST: No ghost state for L =  1
GHOST: No ghost state for L =  2
GHOST: No ghost state for L =  3

KBgen: Kleinman-Bylander projectors: 
   l= 0   rc=  1.634559   el= -1.363963   Ekb=  5.296955   kbcos=  0.335621
   l= 1   rc=  1.614250   el= -0.521451   Ekb= -5.259161   kbcos= -0.433408
   l= 2   rc=  1.718383   el=  0.001991   Ekb= -1.271464   kbcos= -0.007566
   l= 3   rc=  1.761893   el=  0.003093   Ekb= -0.494769   kbcos= -0.001015

KBgen: Total number of  Kleinman-Bylander projectors:   16
atom: -------------------------------------------------------------------------

atom: SANKEY-TYPE ORBITALS:
atom: Selected multiple-zeta basis: split     

SPLIT: Orbitals with angular momentum L= 0

SPLIT: Basis orbitals for state 2s

SPLIT: PAO cut-off radius determined from an
SPLIT: energy shift=  0.007350 Ry

   izeta = 1
                 lambda =    1.000000
                     rc =    4.071465
                 energy =   -1.356470
                kinetic =    1.176977
    potential(screened) =   -2.533447
       potential(ionic) =   -8.057990

   izeta = 2
                 rmatch =    2.905100
              splitnorm =    0.150000
                 energy =   -1.158343
                kinetic =    1.813009
    potential(screened) =   -2.971352
       potential(ionic) =   -8.901931

SPLIT: Orbitals with angular momentum L= 1

SPLIT: Basis orbitals for state 2p

SPLIT: PAO cut-off radius determined from an
SPLIT: energy shift=  0.007350 Ry

   izeta = 1
                 lambda =    1.000000
                     rc =    4.972977
                 energy =   -0.513884
                kinetic =    3.441732
    potential(screened) =   -3.955616
       potential(ionic) =   -9.287901

   izeta = 2
                 rmatch =    3.054066
              splitnorm =    0.150000
                 energy =   -0.318226
                kinetic =    5.125348
    potential(screened) =   -5.443573
       potential(ionic) =  -11.380999

POLgen: Perturbative polarization orbital with L=  2

POLgen: Polarization orbital for state 2p

   izeta = 1
                     rc =    4.972977
                 energy =    1.607437
                kinetic =    3.268125
    potential(screened) =   -1.660688
       potential(ionic) =   -5.973652
atom: Total number of Sankey-type orbitals: 13

atm_pop: Valence configuration (for local Pseudopot. screening):
 2s( 2.00)                                                            
 2p( 3.00)                                                            
Vna: chval, zval:    5.00000   5.00000

Vna:  Cut-off radius for the neutral-atom potential:   4.972977
comcore: Pseudo-core radius Rcore=  1.554824

atom: _________________________________________________________________________

<basis_specs>
===============================================================================
C                    Z=   6    Mass=  12.010        Charge= 0.17977+309
Lmxo=1 Lmxkb= 3    BasisType=split      Semic=F
L=0  Nsemic=0  Cnfigmx=2
          n=1  nzeta=2  polorb=0
            splnorm:   0.15000    
               vcte:    0.0000    
               rinn:    0.0000    
                rcs:    0.0000      0.0000    
            lambdas:    1.0000      1.0000    
L=1  Nsemic=0  Cnfigmx=2
          n=1  nzeta=2  polorb=1
            splnorm:   0.15000    
               vcte:    0.0000    
               rinn:    0.0000    
                rcs:    0.0000      0.0000    
            lambdas:    1.0000      1.0000    
-------------------------------------------------------------------------------
L=0  Nkbl=1  erefs: 0.17977+309
L=1  Nkbl=1  erefs: 0.17977+309
L=2  Nkbl=1  erefs: 0.17977+309
L=3  Nkbl=1  erefs: 0.17977+309
===============================================================================
</basis_specs>

atom: Called for C                     (Z =   6)

read_vps: Pseudopotential generation method:
read_vps: ATM3      Troullier-Martins                       
Total valence charge:    4.00000

read_vps: Pseudopotential includes a core correction:
read_vps: Pseudo-core for xc-correction

xc_check: Exchange-correlation functional:
xc_check: GGA Perdew, Burke & Ernzerhof 1996
V l=0 = -2*Zval/r beyond r=  1.5227
V l=1 = -2*Zval/r beyond r=  1.5227
V l=2 = -2*Zval/r beyond r=  1.5227
V l=3 = -2*Zval/r beyond r=  1.5038
All V_l potentials equal beyond r=  1.5227
This should be close to max(r_c) in ps generation
All pots = -2*Zval/r beyond r=  1.5227

VLOCAL1: 99.0% of the norm of Vloc inside     18.722 Ry
VLOCAL1: 99.9% of the norm of Vloc inside     42.668 Ry
atom: Maximum radius for 4*pi*r*r*local-pseudopot. charge    1.83678
atom: Maximum radius for r*vlocal+2*Zval:    1.58088
GHOST: No ghost state for L =  0
GHOST: No ghost state for L =  1
GHOST: No ghost state for L =  2
GHOST: No ghost state for L =  3

KBgen: Kleinman-Bylander projectors: 
   l= 0   rc=  1.704034   el= -1.009801   Ekb=  5.335044   kbcos=  0.316824
   l= 1   rc=  1.704034   el= -0.388707   Ekb= -3.785862   kbcos= -0.366464
   l= 2   rc=  1.791422   el=  0.001971   Ekb= -0.970471   kbcos= -0.009212
   l= 3   rc=  1.859892   el=  0.003065   Ekb= -0.399525   kbcos= -0.001223

KBgen: Total number of  Kleinman-Bylander projectors:   16
atom: -------------------------------------------------------------------------

atom: SANKEY-TYPE ORBITALS:
atom: Selected multiple-zeta basis: split     

SPLIT: Orbitals with angular momentum L= 0

SPLIT: Basis orbitals for state 2s

SPLIT: PAO cut-off radius determined from an
SPLIT: energy shift=  0.007350 Ry

   izeta = 1
                 lambda =    1.000000
                     rc =    4.632753
                 energy =   -1.002270
                kinetic =    0.855760
    potential(screened) =   -1.858031
       potential(ionic) =   -5.417575

   izeta = 2
                 rmatch =    3.431921
              splitnorm =    0.150000
                 energy =   -0.867111
                kinetic =    1.300804
    potential(screened) =   -2.167915
       potential(ionic) =   -5.962684

SPLIT: Orbitals with angular momentum L= 1

SPLIT: Basis orbitals for state 2p

SPLIT: PAO cut-off radius determined from an
SPLIT: energy shift=  0.007350 Ry

   izeta = 1
                 lambda =    1.000000
                     rc =    5.658549
                 energy =   -0.381140
                kinetic =    2.399701
    potential(screened) =   -2.780841
       potential(ionic) =   -6.206085

   izeta = 2
                 rmatch =    3.653288
              splitnorm =    0.150000
                 energy =   -0.249149
                kinetic =    3.542762
    potential(screened) =   -3.791911
       potential(ionic) =   -7.581078

POLgen: Perturbative polarization orbital with L=  2

POLgen: Polarization orbital for state 2p

   izeta = 1
                     rc =    5.658549
                 energy =    1.109913
                kinetic =    2.304789
    potential(screened) =   -1.194876
       potential(ionic) =   -4.013592
atom: Total number of Sankey-type orbitals: 13

atm_pop: Valence configuration (for local Pseudopot. screening):
 2s( 2.00)                                                            
 2p( 2.00)                                                            
Vna: chval, zval:    4.00000   4.00000

Vna:  Cut-off radius for the neutral-atom potential:   5.658549
comcore: Pseudo-core radius Rcore=  1.791422

atom: _________________________________________________________________________

prinput: Basis input ----------------------------------------------------------

PAO.BasisType split     

%block ChemicalSpeciesLabel
    1    7 N                       # Species index, atomic number, species label
    2    6 C                       # Species index, atomic number, species label
%endblock ChemicalSpeciesLabel

%block PAO.Basis                 # Define Basis set
N                     2                    # Species label, number of l-shells
 n=2   0   2                         # n, l, Nzeta 
   4.071      2.905   
   1.000      1.000   
 n=2   1   2 P   1                   # n, l, Nzeta, Polarization, NzetaPol
   4.973      3.054   
   1.000      1.000   
C                     2                    # Species label, number of l-shells
 n=2   0   2                         # n, l, Nzeta 
   4.633      3.432   
   1.000      1.000   
 n=2   1   2 P   1                   # n, l, Nzeta, Polarization, NzetaPol
   5.659      3.653   
   1.000      1.000   
%endblock PAO.Basis

prinput: ----------------------------------------------------------------------

coor:   Atomic-coordinates input format  =     Fractional

siesta: Atomic coordinates (Bohr) and species
siesta:     -2.35420  38.89134   0.00000  1        1
siesta:     -2.35420  41.57980   0.00000  1        2
siesta:      2.30256  38.89134   0.00000  1        3
siesta:      4.63094  37.54693   0.00000  1        4
siesta:     -4.68258  34.85847   0.00000  1        5
siesta:     -4.68258  37.54693   0.00000  1        6
siesta:     -7.01096  17.38257   0.00000  1        7
siesta:     -4.68258  21.41544   0.00000  1        8
siesta:     -2.35420  25.44831   0.00000  1        9
siesta:     -9.33934  18.72698   0.00000  1       10
siesta:     -7.01096  22.75985   0.00000  1       11
siesta:    -11.66772  22.75985   0.00000  1       12
siesta:    -11.66772  25.44831   0.00000  1       13
siesta:     -9.33934  26.79272   0.00000  1       14
siesta:     -9.33934  29.48119   0.00000  1       15
siesta:     -0.02582  29.48119   0.00000  1       16
siesta:     -4.68258  26.79272   0.00000  1       17
siesta:      2.30256  33.51406   0.00000  1       18
siesta:     -2.35420  30.82560   0.00000  1       19
siesta:     -7.01096  30.82560   0.00000  1       20
siesta:     -7.01096  33.51406   0.00000  1       21
siesta:     -0.02582  34.85847   0.00000  1       22
siesta:     -0.02582  42.92421   0.00000  1       23
siesta:     -0.02582  45.61267   0.00000  1       24
siesta:     -0.02582   2.59549   0.00000  2       25
siesta:     -0.02582   5.28395   0.00000  2       26
siesta:      2.30256  41.57980   0.00000  2       27
siesta:      4.63094  34.85847   0.00000  2       28
siesta:      6.95932  30.82560   0.00000  2       29
siesta:      6.95932  33.51406   0.00000  2       30
siesta:      9.28770  26.79272   0.00000  2       31
siesta:      9.28770  29.48119   0.00000  2       32
siesta:      2.30256   6.62836   0.00000  2       33
siesta:      2.30256   9.31683   0.00000  2       34
siesta:      4.63094  10.66124   0.00000  2       35
siesta:      4.63094  13.34970   0.00000  2       36
siesta:      6.95932  14.69411   0.00000  2       37
siesta:      6.95932  17.38257   0.00000  2       38
siesta:      9.28770  18.72698   0.00000  2       39
siesta:      9.28770  21.41544   0.00000  2       40
siesta:     11.61608  22.75985   0.00000  2       41
siesta:     11.61608  25.44831   0.00000  2       42
siesta:     -2.35420   6.62836   0.00000  2       43
siesta:     -2.35420   9.31683   0.00000  2       44
siesta:     -0.02582  10.66124   0.00000  2       45
siesta:     -0.02582  13.34970   0.00000  2       46
siesta:      2.30256  14.69411   0.00000  2       47
siesta:      2.30256  17.38257   0.00000  2       48
siesta:      4.63094  18.72698   0.00000  2       49
siesta:      4.63094  21.41544   0.00000  2       50
siesta:      6.95932  22.75985   0.00000  2       51
siesta:      6.95932  25.44831   0.00000  2       52
siesta:     -4.68258  10.66124   0.00000  2       53
siesta:     -4.68258  13.34970   0.00000  2       54
siesta:     -2.35420  14.69411   0.00000  2       55
siesta:     -2.35420  17.38257   0.00000  2       56
siesta:     -0.02582  18.72698   0.00000  2       57
siesta:     -0.02582  21.41544   0.00000  2       58
siesta:      2.30256  22.75985   0.00000  2       59
siesta:      2.30256  25.44831   0.00000  2       60
siesta:     -7.01096  14.69411   0.00000  2       61
siesta:     -4.68258  18.72698   0.00000  2       62
siesta:     -2.35420  22.75985   0.00000  2       63
siesta:     -9.33934  21.41544   0.00000  2       64
siesta:     -7.01096  25.44831   0.00000  2       65
siesta:      4.63094  26.79272   0.00000  2       66
siesta:      4.63094  29.48119   0.00000  2       67
siesta:     -0.02582  26.79272   0.00000  2       68
siesta:     -4.68258  29.48119   0.00000  2       69
siesta:      2.30256  30.82560   0.00000  2       70
siesta:     -2.35420  33.51406   0.00000  2       71
siesta:     -0.02582  37.54693   0.00000  2       72

siesta: System type = slab      

initatomlists: Number of atoms, orbitals, and projectors:     72   936  1152

siesta: ******************** Simulation parameters ****************************
siesta:
siesta: The following are some of the parameters of the simulation.
siesta: A complete list of the parameters used, including default values,
siesta: can be found in file out.fdf
siesta:
redata: Non-Collinear-spin run           =     F
redata: SpinPolarized (Up/Down) run      =     F
redata: Number of spin components        =     1
redata: Long output                      =     F
redata: Number of Atomic Species         =        2
redata: Charge density info will appear in .RHO file
redata: Write Mulliken Pop.              =     NO
redata: Mesh Cutoff                      =   200.0000  Ry
redata: Net charge of the system         =     0.0000 |e|
redata: Max. number of SCF Iter          =      500
redata: SCF convergence failure will abort job
redata: Performing Pulay mixing using    =    10 iterations
redata: Mix DM in first SCF step ?       =     F
redata: Write Pulay info on disk?        =     F
redata: Discard 1st Pulay DM after  kick =     F
redata: New DM Mixing Weight             =     0.0500
redata: New DM Occupancy tolerance       = 0.000000000001
redata: No kicks to SCF
redata: DM Mixing Weight for Kicks       =     0.5000
redata: DM Tolerance for SCF             =     0.000100
redata: Require Energy convergence for SCF =     F
redata: DM Energy tolerance for SCF      =     0.000100 eV
redata: Require Harris convergence for SCF =     F
redata: DM Harris energy tolerance for SCF =     0.000100 eV
redata: Using Saved Data (generic)   =     F
redata: Use continuation files for DM    =     T
redata: Neglect nonoverlap interactions  =     F
redata: Method of Calculation            =     Diagonalization
redata: Divide and Conquer               =     T
redata: Electronic Temperature           =     0.0019  Ry
redata: Fix the spin of the system       =     F
redata: Dynamics option                  =     Verlet MD run
redata: Initial MD time step             =        1
redata:   Final MD time step             =        1
redata: Length of MD time step           =     1.0000  fs
redata: Initial Temperature of MD run    =     0.0000  K
redata: Perform a MD quench              =     F
redata: ***********************************************************************
Total number of electrons:   312.000000
Total ionic charge:   312.000000

* ProcessorY, Blocksize:    2  24

k-point displ. along   1 input, could be:     0.50    0.00
k-point displ. along   2 input, could be:     0.50    0.00
 Kpoints in:          231 . Kpoints trimmed:          231

siesta: k-grid: Number of k-points =   231
siesta: k-grid: Cutoff (effective) =     5.000 Ang
siesta: k-grid: Supercell and displacements
siesta: k-grid:   21   0   0      0.500
siesta: k-grid:    0  21   0      0.500
siesta: k-grid:    0   0   1      0.000
Naive supercell factors:     2    2    2

superc: Internal auxiliary supercell:     2 x     2 x     2  =       8
superc: Number of atoms, orbitals, and projectors:    576   7488   9216

* Maximum dynamic memory allocated =     4 MB

siesta:                 ==============================
                            Begin MD step =      1
                        ==============================

superc: Internal auxiliary supercell:     2 x     2 x     2  =       8
superc: Number of atoms, orbitals, and projectors:    576   7488   9216

outcell: Unit cell vectors (Ang):
       12.804619    7.392750    0.000000
        0.000000   14.785500    0.000000
        0.000000    0.000000   10.000000

outcell: Cell vector modules (Ang)   :   14.785500   14.785500   10.000000
outcell: Cell angles (23,13,12) (deg):     90.0000     90.0000     60.0000
outcell: Cell volume (Ang**3)        :   1893.2269
New_DM. Step:     1
Initializing Density Matrix...

InitMesh: MESH =   120 x   120 x    90 =     1296000
InitMesh: Mesh cutoff (required, used) =   200.000   223.865 Ry

* Maximum dynamic memory allocated =   178 MB

stepf: Fermi-Dirac step function

siesta: Program's energy decomposition (eV):
siesta: Ebs     =     -6404.072038
siesta: Eions   =     22260.935331
siesta: Ena     =      4976.036542
siesta: Ekin    =      8392.322035
siesta: Enl     =       -72.003832
siesta: DEna    =        -0.000015
siesta: DUscf   =         0.000000
siesta: DUext   =         0.000000
siesta: Exc     =     -4780.583927
siesta: eta*DQ  =         0.000000
siesta: Emadel  =         0.000000
siesta: Emeta   =         0.000000
siesta: Emolmec =         0.000000
siesta: Ekinion =         0.000000
siesta: Eharris =    -13353.782487
siesta: Etot    =    -13745.164529
siesta: FreeEng =    -13745.164529

siesta: iscf   Eharris(eV)      E_KS(eV)   FreeEng(eV)   dDmax  Ef(eV)
siesta:    1   -13353.7825   -13745.1645   -13745.1645  5.1445 -6.6223
timer: Routine,Calls,Time,% = IterSCF        1    4156.801  99.73
elaps: Routine,Calls,Wall,% = IterSCF        1     520.203  99.73
siesta:    2   -16838.8640   -12820.2230   -12820.2738 27.2751 -2.7186
siesta:    3   -13245.6329   -13560.8671   -13560.9174  2.5194 -4.7815
siesta:    4   -13224.5849   -13384.2038   -13384.2515  1.1043 -3.5875
siesta:    5   -13198.6662   -13313.9591   -13314.0282  0.9546 -3.6222
siesta:    6   -13195.4252   -13290.7455   -13290.8203  0.8829 -3.7142
siesta:    7   -13193.1991   -13276.1811   -13276.2490  0.8080 -3.6893
siesta:    8   -13191.8022   -13261.3762   -13261.4148  0.7306 -3.7305
siesta:    9   -13191.7088   -13236.0405   -13236.0979  0.5693 -3.7877
siesta:   10   -13191.7357   -13214.6235   -13214.6781  0.4496 -3.7926
siesta:   11   -13191.3488   -13201.5283   -13201.5796  0.3354 -3.7572
siesta:   12   -13191.6276   -13185.1311   -13185.1638  0.6711 -3.7309
siesta:   13   -13190.9040   -13176.6787   -13176.7308  0.5348 -3.6910
siesta:   14   -13190.6965   -13175.7770   -13175.8556  0.4194 -3.7024
siesta:   15   -13190.5593   -13174.9882   -13175.0732  0.2532 -3.7101
siesta:   16   -13190.3351   -13178.2861   -13178.3683  0.2306 -3.7431
siesta:   17   -13190.1985   -13182.6321   -13182.7236  0.2490 -3.7631
siesta:   18   -13190.1753   -13184.7763   -13184.8626  0.1209 -3.7791
siesta:   19   -13190.1574   -13186.0102   -13186.0904  0.1324 -3.7632
siesta:   20   -13190.1593   -13187.0921   -13187.1739  0.1440 -3.7675
siesta:   21   -13190.1444   -13188.5886   -13188.6684  0.1428 -3.7728
siesta:   22   -13190.1374   -13189.6794   -13189.7676  0.0657 -3.7745
siesta:   23   -13190.1348   -13190.0871   -13190.1745  0.0488 -3.7666
siesta:   24   -13190.1321   -13190.4496   -13190.5364  0.0576 -3.7639
siesta:   25   -13190.1297   -13190.3422   -13190.4335  0.0432 -3.7547
siesta:   26   -13190.1286   -13190.4178   -13190.5075  0.0117 -3.7547
siesta:   27   -13190.1285   -13190.4987   -13190.5880  0.0148 -3.7532
siesta:   28   -13190.1283   -13190.4738   -13190.5629  0.0070 -3.7552
siesta:   29   -13190.1283   -13190.5099   -13190.5990  0.0073 -3.7555
siesta:   30   -13190.1281   -13190.5538   -13190.6428  0.0019 -3.7553
siesta:   31   -13190.1281   -13190.5197   -13190.6088  0.0022 -3.7555
siesta:   32   -13190.1282   -13190.4041   -13190.4932  0.0011 -3.7560
siesta:   33   -13190.1282   -13190.3063   -13190.3953  0.0012 -3.7565
siesta:   34   -13190.1282   -13190.2780   -13190.3671  0.0005 -3.7565
siesta:   35   -13190.1281   -13190.2261   -13190.3152  0.0006 -3.7566
siesta:   36   -13190.1282   -13190.1664   -13190.2554  0.0005 -3.7565
siesta:   37   -13190.1282   -13190.1514   -13190.2405  0.0004 -3.7565
siesta:   38   -13190.1282   -13190.1401   -13190.2292  0.0003 -3.7564
siesta:   39   -13190.1281   -13190.1364   -13190.2255  0.0002 -3.7563
siesta:   40   -13190.1281   -13190.1338   -13190.2228  0.0001 -3.7563
siesta:   41   -13190.1281   -13190.1323   -13190.2214  0.0001 -3.7563
siesta:   42   -13190.1281   -13190.1317   -13190.2208  0.0001 -3.7563

siesta: E_KS(eV) =           -13190.1321

siesta: E_KS - E_eggbox =    -13190.1321

siesta: Atomic forces (eV/Ang):
----------------------------------------
   Tot   -0.169973   -0.151786    0.000000
----------------------------------------
   Max  685.898935
   Res  183.161675    sqrt( Sum f_i^2 / 3N )
----------------------------------------
   Max  685.898935    constrained

Stress-tensor-Voigt (kbar):     -620.98    -3302.34       -0.02        3.83        0.00        0.00
(Free)E + p*V (eV/cell)   -11644.8865
Target enthalpy (eV/cell)   -13190.2212

siesta: Stress tensor (static) (eV/Ang**3):
        -0.387584    0.002394    0.000000
         0.002394   -2.061134    0.000000
         0.000000    0.000000   -0.000013

siesta: Pressure (static):       1307.78090897  kBar

siesta: Stress tensor (total) (eV/Ang**3):
        -0.387584    0.002394    0.000000
         0.002394   -2.061134    0.000000
         0.000000    0.000000   -0.000013

siesta: Pressure (total):       1307.78090897  kBar

siesta: Temp_ion =       0.000 K

* Maximum dynamic memory allocated =   195 MB
Computing bands...

siesta: Program's energy decomposition (eV):
siesta: Ebs     =     -5133.047193
siesta: Eions   =     22260.935331
siesta: Ena     =      4976.036542
siesta: Ekin    =     11582.348845
siesta: Enl     =     -1818.573821
siesta: DEna    =      -819.555378
siesta: DUscf   =       111.903319
siesta: DUext   =         0.000000
siesta: Exc     =     -4961.356323
siesta: eta*DQ  =         0.000000
siesta: Emadel  =         0.000000
siesta: Emeta   =         0.000000
siesta: Emolmec =         0.000000
siesta: Ekinion =         0.000000
siesta: Eharris =    -13190.128129
siesta: Etot    =    -13190.132147
siesta: FreeEng =    -13190.221210

siesta: Final energy (eV):
siesta:  Band Struct. =   -5133.047193
siesta:       Kinetic =   11582.348845
siesta:       Hartree =   37140.625106
siesta:    Ext. field =       0.000000
siesta:   Exch.-corr. =   -4961.356323
siesta:  Ion-electron =  -85347.487985
siesta:       Ion-ion =   28395.738211
siesta:       Ekinion =       0.000000
siesta:         Total =  -13190.132147

siesta: Atomic forces (eV/Ang):
siesta:      1    2.203310  109.727272    0.000000
siesta:      2  -28.997997 -655.987976    0.000000
siesta:      3   -3.426476  128.011541    0.000000
siesta:      4   36.806758 -657.040260    0.000000
siesta:      5  -24.805812    3.413587    0.000000
siesta:      6  -27.665967 -653.204707    0.000000
siesta:      7    1.144706    0.204529    0.000000
siesta:      8    0.576738    0.984086    0.000000
siesta:      9   -1.965427    0.368633    0.000000
siesta:     10   -0.303778    2.536492    0.000000
siesta:     11   -0.044597    1.254400    0.000000
siesta:     12    2.576341    1.413344    0.000000
siesta:     13    0.650883   -1.008306    0.000000
siesta:     14    2.529334   -0.830215    0.000000
siesta:     15   -1.332521    0.711776    0.000000
siesta:     16   16.552479 -685.574033    0.000000
siesta:     17   -0.878815   -0.980828    0.000000
siesta:     18   19.832186 -676.447504    0.000000
siesta:     19  -36.986749   12.135438    0.000000
siesta:     20    2.169028   -1.643642    0.000000
siesta:     21   -1.076609   -3.336613    0.000000
siesta:     22   -1.411266  121.412932    0.000000
siesta:     23   -0.509283  108.725432    0.000000
siesta:     24   -2.897828 -645.419859    0.000000
siesta:     25   -8.728237  645.576632    0.000000
siesta:     26   -2.700535 -115.046809    0.000000
siesta:     27   17.508411 -550.738340    0.000000
siesta:     28   26.610605    6.768785    0.000000
siesta:     29    1.205792    0.348431    0.000000
siesta:     30   -2.678762    2.081845    0.000000
siesta:     31    1.989569    2.935010    0.000000
siesta:     32   -1.346674   -0.354129    0.000000
siesta:     33    9.275419  649.086791    0.000000
siesta:     34   -2.192210 -120.774976    0.000000
siesta:     35   21.465332  652.777788    0.000000
siesta:     36   27.022763   -1.806079    0.000000
siesta:     37   -3.689451   -2.053440    0.000000
siesta:     38    1.966995    0.106854    0.000000
siesta:     39   -1.605716    0.353766    0.000000
siesta:     40    1.752491   -2.585336    0.000000
siesta:     41    0.043082    7.810754    0.000000
siesta:     42   -0.203534   -7.937161    0.000000
siesta:     43  -22.677930  549.239931    0.000000
siesta:     44    2.621695 -121.662210    0.000000
siesta:     45   -5.963682  551.133526    0.000000
siesta:     46    3.478884 -120.111164    0.000000
siesta:     47    5.941048  562.721613    0.000000
siesta:     48   24.097375   -5.082520    0.000000
siesta:     49   -1.012599    3.495005    0.000000
siesta:     50    0.342488   -0.290399    0.000000
siesta:     51   -0.043314    0.903698    0.000000
siesta:     52   -0.182308   -0.980806    0.000000
siesta:     53  -24.166258  656.735253    0.000000
siesta:     54  -25.137271   -4.289414    0.000000
siesta:     55    1.116275  684.450748    0.000000
siesta:     56  -24.775068   -5.056470    0.000000
siesta:     57    2.380067  685.898935    0.000000
siesta:     58   -0.900593    0.521405    0.000000
siesta:     59    0.623097    0.249243    0.000000
siesta:     60   -0.372181   -0.257145    0.000000
siesta:     61    1.249333    1.895132    0.000000
siesta:     62    0.149527    2.539737    0.000000
siesta:     63   -1.884783   -0.544959    0.000000
siesta:     64   -0.590528   -2.627515    0.000000
siesta:     65    0.312370   -0.106939    0.000000
siesta:     66    0.188715    0.467448    0.000000
siesta:     67   -0.943764   -2.426891    0.000000
siesta:     68    0.629946    1.131874    0.000000
siesta:     69   -0.612894   -0.686982    0.000000
siesta:     70   24.073199    8.336559    0.000000
siesta:     71   -1.922329 -572.592710    0.000000
siesta:     72    5.377529 -549.131671    0.000000
siesta: ----------------------------------------
siesta:    Tot   -0.169973   -0.151786    0.000000

siesta: Stress tensor (static) (eV/Ang**3):
siesta:    -0.387584    0.002394    0.000000
siesta:     0.002394   -2.061134    0.000000
siesta:     0.000000    0.000000   -0.000013

siesta: Cell volume =       1893.226884 Ang**3

siesta: Pressure (static):
siesta:                Solid            Molecule  Units
siesta:           0.00888994          0.14596166  Ry/Bohr**3
siesta:           0.81624382         13.40170365  eV/Ang**3
siesta:        1307.78090897      21472.12852914  kBar
(Free)E+ p_basis*V_orbitals  =      -13162.914719
(Free)Eharris+ p_basis*V_orbitals  =      -13162.911147

siesta: Electric dipole (a.u.)  =    0.000000    0.000000    0.000000
siesta: Electric dipole (Debye) =    0.000000    0.000000    0.000000

* Maximum dynamic memory allocated : Node    0 =   195 MB
* Maximum dynamic memory allocated : Node    1 =    72 MB
* Maximum dynamic memory allocated : Node    2 =    72 MB
* Maximum dynamic memory allocated : Node    3 =   184 MB
* Maximum dynamic memory allocated : Node    4 =   188 MB
* Maximum dynamic memory allocated : Node    5 =    70 MB
* Maximum dynamic memory allocated : Node    6 =    72 MB
* Maximum dynamic memory allocated : Node    7 =   173 MB

* Maximum memory occured during matrixMtoO                    

timer: CPU execution times:
timer:  Routine       Calls   Time/call    Tot.time        %
timer:  siesta            1  171492.179  171492.179   100.00
timer:  Setup             1       3.028       3.028     0.00
timer:  bands             3     268.998     806.993     0.47
timer:  writewave         1       0.018       0.018     0.00
timer:  KSV_init          1       0.004       0.004     0.00
timer:  IterMD            1  170676.322  170676.322    99.52
timer:  hsparse           1       0.232       0.232     0.00
timer:  overlap           1       7.711       7.711     0.00
timer:  IterSCF          42    4059.934  170517.221    99.43
timer:  kinefsm           2       3.956       7.911     0.00
timer:  nlefsm            2      18.478      36.956     0.02
timer:  DHSCF            43      81.644    3510.693     2.05
timer:  DHSCF1            1       0.758       0.758     0.00
timer:  DHSCF2            1      32.102      32.102     0.02
timer:  REORD           346       0.010       3.516     0.00
timer:  POISON           44       2.252      99.072     0.06
timer:  DHSCF3           43      80.150    3446.449     2.01
timer:  rhoofd           43      16.239     698.270     0.41
timer:  cellXC           43       3.545     152.455     0.09
timer:  vmat             43      38.217    1643.327     0.96
timer:  MolMec            2       0.000       0.000     0.00
timer:  diagon           42    3977.062  167036.591    97.40
timer:  c-eigval       9823       6.670   65520.962    38.21
timer:  c-buildHS      9823       0.111    1093.300     0.64
timer:  cdiag         19525       6.858  133902.749    78.08
timer:  cdiag1        19525       0.427    8333.810     4.86
timer:  cdiag2        19525       1.908   37244.180    21.72
timer:  cdiag3        19525       3.948   77081.374    44.95
timer:  cdiag4        19525       0.205    3999.074     2.33
timer:  c-eigvec       9702       7.224   70091.054    40.87
timer:  c-buildD       9702       3.316   32174.773    18.76
timer:  DHSCF4            1      29.115      29.115     0.02
timer:  dfscf             1      27.340      27.340     0.02
timer:  overfsm           1       0.396       0.396     0.00
timer:  optical           1       5.092       5.092     0.00
  

elaps: ELAPSED times:
elaps:  Routine       Calls   Time/call    Tot.time        %
elaps:  siesta            1   21459.592   21459.592   100.00
elaps:  Setup             1       0.378       0.378     0.00
elaps:  bands             3      33.675     101.026     0.47
elaps:  writewave         1       0.002       0.002     0.00
elaps:  KSV_init          1       0.000       0.000     0.00
elaps:  IterMD            1   21357.514   21357.514    99.52
elaps:  hsparse           1       0.029       0.029     0.00
elaps:  overlap           1       0.970       0.970     0.00
elaps:  IterSCF          42     508.038   21337.611    99.43
elaps:  kinefsm           2       0.499       0.998     0.00
elaps:  nlefsm            2       2.361       4.723     0.02
elaps:  DHSCF            43      10.300     442.905     2.06
elaps:  DHSCF1            1       0.098       0.098     0.00
elaps:  DHSCF2            1       4.012       4.012     0.02
elaps:  REORD           346       0.001       0.450     0.00
elaps:  POISON           44       0.282      12.411     0.06
elaps:  DHSCF3           43      10.028     431.187     2.01
elaps:  rhoofd           43       4.386     188.617     0.88
elaps:  cellXC           43       0.443      19.044     0.09
elaps:  vmat             43       4.781     205.592     0.96
elaps:  MolMec            2       0.000       0.000     0.00
elaps:  diagon           42     497.683   20902.699    97.40
elaps:  c-eigval       9823       0.835    8197.668    38.20
elaps:  c-buildHS      9823       0.015     151.022     0.70
elaps:  cdiag         19525       0.849   16584.205    77.28
elaps:  cdiag1        19525       0.053    1031.671     4.81
elaps:  cdiag2        19525       0.239    4660.241    21.72
elaps:  cdiag3        19525       0.495    9657.051    45.00
elaps:  cdiag4        19525       0.026     506.862     2.36
elaps:  c-eigvec       9702       0.892    8656.169    40.34
elaps:  c-buildD       9702       0.427    4142.124    19.30
elaps:  DHSCF4            1       7.296       7.296     0.03
elaps:  dfscf             1       6.912       6.912     0.03
elaps:  overfsm           1       0.051       0.051     0.00
elaps:  optical           1       0.000       0.000     0.00
  
>> End of run:  24-APR-2016   4:32:54
