Siesta Version:                                        siesta-3.2-pl-3
Architecture  : x86_64-unknown-linux-gnu--unknown
Compiler flags: mpiifort -g -O2 -fPIC -xSSE4.1 -fp-model source -shared-intel 
PARALLEL version

* Running on    8 nodes in parallel
>> Start of run:  28-APR-2016  17:06:22

                           ***********************       
                           *  WELCOME TO SIESTA  *       
                           ***********************       

reinit: Reading from standard input
************************** Dump of input data file ****************************
#(1) General system descriptors
SystemName            GRP_doping    # Descriptive name of the system
SystemLabel           GRP_doping    # Short name for naming files
%include STRUCT.fdf
%include KPT.fdf
%include BASIS.fdf
#%include TS.fdf # for transiesta calculation
#(4) DFT, Grid, SCF
XC.functional         GGA           # LDA or GGA (default = LDA)
XC.authors            PBE           # CA (Ceperley-Aldr) = PZ
                                    #    (Perdew-Zunger) - LDA - Default
                                    # PW92 (Perdew-Wang-92) - LDA
                                    # PBE (Perdew-Burke-Ernzerhof) - GGA
MeshCutoff            200.000000    Ry      # Default: 50.0 Ry ~ 0.444 Bohr
                                    #         100.0 Ry ~ 0.314 Bohr
MaxSCFIterations      500           # Default: 50
DM.MixingWeight       0.05          # Default: 0.25
DM.NumberPulay        10            # Default: 0
DM.PulayOnFile        F             # SystemLabel.P1, SystemLabel.P2
DM.Tolerance          1.d-4         # Default: 1.d-4
DM.UseSaveDM          .true.        # because of the bug
SCFMustConverge       .true.
NeglNonOverlapInt     F             # Default: F
#(5) Eigenvalue problem: order-N or diagonalization
SolutionMethod        Diagon        # or Transiesta
ElectronicTemperature 300.0 K       # Default: 300.0 K
#(6) Molecular dynamics and relaxations
#MD.TypeOfRun          CG            # Type of dynamics:
#MD.VariableCell       F
#MD.NumCGsteps         0           # 0 for single-point / 100 for gopt
#MD.MaxCGDispl         0.2 Bohr      # Default: 0.2 Bohr
#MD.MaxForceTol        0.02 eV/Ang   # Default: 0.04 eV/Ang
#MD.MaxStressTol       1.0 GPa       # Default: 1.0 GPa
# Geometry Constraints
#%block GeometryConstraints
#	position from 1 to 44
#%endblock GeometryConstraints
BandLinesScale   pi/a
%block BandLines
 1   0.00000000  0.00000000  0.00000000
50   0.00000000  0.07809418  0.00000000
50   0.04509075  0.07809242  0.00000000
20   0.00000000  0.00000000  0.00000000
%endblock BandLines
************************** End of input data file *****************************

reinit: -----------------------------------------------------------------------
reinit: System Name: GRP_doping
reinit: -----------------------------------------------------------------------
reinit: System Label: GRP_doping                                                  
reinit: -----------------------------------------------------------------------

initatom: Reading input for the pseudopotentials and atomic orbitals ----------
 Species number:            1  Label: B Atomic number:           5
 Species number:            2  Label: C Atomic number:           6
Ground state valence configuration:   2s02  2p01
Reading pseudopotential information in formatted form from B.psf

Valence configuration for pseudopotential generation:
2s( 2.00) rc: 1.74
2p( 1.00) rc: 1.74
3d( 0.00) rc: 1.74
4f( 0.00) rc: 1.74
Ground state valence configuration:   2s02  2p02
Reading pseudopotential information in formatted form from C.psf

Valence configuration for pseudopotential generation:
2s( 2.00) rc: 1.54
2p( 2.00) rc: 1.54
3d( 0.00) rc: 1.54
4f( 0.00) rc: 1.54
For B, standard SIESTA heuristics set lmxkb to 3
 (one more than the basis l, including polarization orbitals).
Use PS.lmax or PS.KBprojectors blocks to override.
For C, standard SIESTA heuristics set lmxkb to 3
 (one more than the basis l, including polarization orbitals).
Use PS.lmax or PS.KBprojectors blocks to override.

<basis_specs>
===============================================================================
B                    Z=   5    Mass=  10.810        Charge= 0.17977+309
Lmxo=1 Lmxkb= 3    BasisType=split      Semic=F
L=0  Nsemic=0  Cnfigmx=2
          n=1  nzeta=2  polorb=0
            splnorm:   0.15000    
               vcte:    0.0000    
               rinn:    0.0000    
                rcs:    0.0000      0.0000    
            lambdas:    1.0000      1.0000    
L=1  Nsemic=0  Cnfigmx=2
          n=1  nzeta=2  polorb=1
            splnorm:   0.15000    
               vcte:    0.0000    
               rinn:    0.0000    
                rcs:    0.0000      0.0000    
            lambdas:    1.0000      1.0000    
-------------------------------------------------------------------------------
L=0  Nkbl=1  erefs: 0.17977+309
L=1  Nkbl=1  erefs: 0.17977+309
L=2  Nkbl=1  erefs: 0.17977+309
L=3  Nkbl=1  erefs: 0.17977+309
===============================================================================
</basis_specs>

atom: Called for B                     (Z =   5)

read_vps: Pseudopotential generation method:
read_vps: ATM3      Troullier-Martins                       
Total valence charge:    3.00000

read_vps: Pseudopotential includes a core correction:
read_vps: Pseudo-core for xc-correction

xc_check: Exchange-correlation functional:
xc_check: GGA Perdew, Burke & Ernzerhof 1996
V l=0 = -2*Zval/r beyond r=  1.7165
V l=1 = -2*Zval/r beyond r=  1.7165
V l=2 = -2*Zval/r beyond r=  1.7165
V l=3 = -2*Zval/r beyond r=  1.6951
All V_l potentials equal beyond r=  1.7165
This should be close to max(r_c) in ps generation
All pots = -2*Zval/r beyond r=  1.7165

VLOCAL1: 99.0% of the norm of Vloc inside     14.733 Ry
VLOCAL1: 99.9% of the norm of Vloc inside     33.577 Ry
atom: Maximum radius for 4*pi*r*r*local-pseudopot. charge    2.04484
atom: Maximum radius for r*vlocal+2*Zval:    1.75994
GHOST: No ghost state for L =  0
GHOST: No ghost state for L =  1
GHOST: No ghost state for L =  2
GHOST: No ghost state for L =  3

KBgen: Kleinman-Bylander projectors: 
   l= 0   rc=  1.897051   el= -0.693730   Ekb=  4.595746   kbcos=  0.286105
   l= 1   rc=  1.920920   el= -0.265236   Ekb= -2.350715   kbcos= -0.315747
   l= 2   rc=  2.044840   el=  0.002055   Ekb= -0.690767   kbcos= -0.013822
   l= 3   rc=  2.149707   el=  0.003188   Ekb= -0.315358   kbcos= -0.002055

KBgen: Total number of  Kleinman-Bylander projectors:   16
atom: -------------------------------------------------------------------------

atom: SANKEY-TYPE ORBITALS:
atom: Selected multiple-zeta basis: split     

SPLIT: Orbitals with angular momentum L= 0

SPLIT: Basis orbitals for state 2s

SPLIT: PAO cut-off radius determined from an
SPLIT: energy shift=  0.007350 Ry

   izeta = 1
                 lambda =    1.000000
                     rc =    5.422032
                 energy =   -0.686029
                kinetic =    0.576707
    potential(screened) =   -1.262736
       potential(ionic) =   -3.271094

   izeta = 2
                 rmatch =    4.222573
              splitnorm =    0.150000
                 energy =   -0.602132
                kinetic =    0.858975
    potential(screened) =   -1.461107
       potential(ionic) =   -3.582536

SPLIT: Orbitals with angular momentum L= 1

SPLIT: Basis orbitals for state 2p

SPLIT: PAO cut-off radius determined from an
SPLIT: energy shift=  0.007350 Ry

   izeta = 1
                 lambda =    1.000000
                     rc =    6.790259
                 energy =   -0.258578
                kinetic =    1.481412
    potential(screened) =   -1.739989
       potential(ionic) =   -3.657461

   izeta = 2
                 rmatch =    4.608740
              splitnorm =    0.150000
                 energy =   -0.173757
                kinetic =    2.186690
    potential(screened) =   -2.360447
       potential(ionic) =   -4.464260

POLgen: Perturbative polarization orbital with L=  2

POLgen: Polarization orbital for state 2p

   izeta = 1
                     rc =    6.790259
                 energy =    0.684082
                kinetic =    1.471481
    potential(screened) =   -0.787399
       potential(ionic) =   -2.406985
atom: Total number of Sankey-type orbitals: 13

atm_pop: Valence configuration (for local Pseudopot. screening):
 2s( 2.00)                                                            
 2p( 1.00)                                                            
Vna: chval, zval:    3.00000   3.00000

Vna:  Cut-off radius for the neutral-atom potential:   6.790259
comcore: Pseudo-core radius Rcore=  2.122997

atom: _________________________________________________________________________

<basis_specs>
===============================================================================
C                    Z=   6    Mass=  12.010        Charge= 0.17977+309
Lmxo=1 Lmxkb= 3    BasisType=split      Semic=F
L=0  Nsemic=0  Cnfigmx=2
          n=1  nzeta=2  polorb=0
            splnorm:   0.15000    
               vcte:    0.0000    
               rinn:    0.0000    
                rcs:    0.0000      0.0000    
            lambdas:    1.0000      1.0000    
L=1  Nsemic=0  Cnfigmx=2
          n=1  nzeta=2  polorb=1
            splnorm:   0.15000    
               vcte:    0.0000    
               rinn:    0.0000    
                rcs:    0.0000      0.0000    
            lambdas:    1.0000      1.0000    
-------------------------------------------------------------------------------
L=0  Nkbl=1  erefs: 0.17977+309
L=1  Nkbl=1  erefs: 0.17977+309
L=2  Nkbl=1  erefs: 0.17977+309
L=3  Nkbl=1  erefs: 0.17977+309
===============================================================================
</basis_specs>

atom: Called for C                     (Z =   6)

read_vps: Pseudopotential generation method:
read_vps: ATM3      Troullier-Martins                       
Total valence charge:    4.00000

read_vps: Pseudopotential includes a core correction:
read_vps: Pseudo-core for xc-correction

xc_check: Exchange-correlation functional:
xc_check: GGA Perdew, Burke & Ernzerhof 1996
V l=0 = -2*Zval/r beyond r=  1.5227
V l=1 = -2*Zval/r beyond r=  1.5227
V l=2 = -2*Zval/r beyond r=  1.5227
V l=3 = -2*Zval/r beyond r=  1.5038
All V_l potentials equal beyond r=  1.5227
This should be close to max(r_c) in ps generation
All pots = -2*Zval/r beyond r=  1.5227

VLOCAL1: 99.0% of the norm of Vloc inside     18.722 Ry
VLOCAL1: 99.9% of the norm of Vloc inside     42.668 Ry
atom: Maximum radius for 4*pi*r*r*local-pseudopot. charge    1.83678
atom: Maximum radius for r*vlocal+2*Zval:    1.58088
GHOST: No ghost state for L =  0
GHOST: No ghost state for L =  1
GHOST: No ghost state for L =  2
GHOST: No ghost state for L =  3

KBgen: Kleinman-Bylander projectors: 
   l= 0   rc=  1.704034   el= -1.009801   Ekb=  5.335044   kbcos=  0.316824
   l= 1   rc=  1.704034   el= -0.388707   Ekb= -3.785862   kbcos= -0.366464
   l= 2   rc=  1.791422   el=  0.001971   Ekb= -0.970471   kbcos= -0.009212
   l= 3   rc=  1.859892   el=  0.003065   Ekb= -0.399525   kbcos= -0.001223

KBgen: Total number of  Kleinman-Bylander projectors:   16
atom: -------------------------------------------------------------------------

atom: SANKEY-TYPE ORBITALS:
atom: Selected multiple-zeta basis: split     

SPLIT: Orbitals with angular momentum L= 0

SPLIT: Basis orbitals for state 2s

SPLIT: PAO cut-off radius determined from an
SPLIT: energy shift=  0.007350 Ry

   izeta = 1
                 lambda =    1.000000
                     rc =    4.632753
                 energy =   -1.002270
                kinetic =    0.855760
    potential(screened) =   -1.858031
       potential(ionic) =   -5.417575

   izeta = 2
                 rmatch =    3.431921
              splitnorm =    0.150000
                 energy =   -0.867111
                kinetic =    1.300804
    potential(screened) =   -2.167915
       potential(ionic) =   -5.962684

SPLIT: Orbitals with angular momentum L= 1

SPLIT: Basis orbitals for state 2p

SPLIT: PAO cut-off radius determined from an
SPLIT: energy shift=  0.007350 Ry

   izeta = 1
                 lambda =    1.000000
                     rc =    5.658549
                 energy =   -0.381140
                kinetic =    2.399701
    potential(screened) =   -2.780841
       potential(ionic) =   -6.206085

   izeta = 2
                 rmatch =    3.653288
              splitnorm =    0.150000
                 energy =   -0.249149
                kinetic =    3.542762
    potential(screened) =   -3.791911
       potential(ionic) =   -7.581078

POLgen: Perturbative polarization orbital with L=  2

POLgen: Polarization orbital for state 2p

   izeta = 1
                     rc =    5.658549
                 energy =    1.109913
                kinetic =    2.304789
    potential(screened) =   -1.194876
       potential(ionic) =   -4.013592
atom: Total number of Sankey-type orbitals: 13

atm_pop: Valence configuration (for local Pseudopot. screening):
 2s( 2.00)                                                            
 2p( 2.00)                                                            
Vna: chval, zval:    4.00000   4.00000

Vna:  Cut-off radius for the neutral-atom potential:   5.658549
comcore: Pseudo-core radius Rcore=  1.791422

atom: _________________________________________________________________________

prinput: Basis input ----------------------------------------------------------

PAO.BasisType split     

%block ChemicalSpeciesLabel
    1    5 B                       # Species index, atomic number, species label
    2    6 C                       # Species index, atomic number, species label
%endblock ChemicalSpeciesLabel

%block PAO.Basis                 # Define Basis set
B                     2                    # Species label, number of l-shells
 n=2   0   2                         # n, l, Nzeta 
   5.422      4.223   
   1.000      1.000   
 n=2   1   2 P   1                   # n, l, Nzeta, Polarization, NzetaPol
   6.790      4.609   
   1.000      1.000   
C                     2                    # Species label, number of l-shells
 n=2   0   2                         # n, l, Nzeta 
   4.633      3.432   
   1.000      1.000   
 n=2   1   2 P   1                   # n, l, Nzeta, Polarization, NzetaPol
   5.659      3.653   
   1.000      1.000   
%endblock PAO.Basis

prinput: ----------------------------------------------------------------------

coor:   Atomic-coordinates input format  =     Fractional

siesta: Atomic coordinates (Bohr) and species
siesta:      9.28770  26.79272   0.00000  1        1
siesta:      9.28770  21.41544   0.00000  1        2
siesta:     11.61608  22.75985   0.00000  1        3
siesta:      4.63094  21.41544   0.00000  1        4
siesta:      6.95932  22.75985   0.00000  1        5
siesta:      6.95932  25.44831   0.00000  1        6
siesta:     -0.02582  21.41544   0.00000  1        7
siesta:      2.30256  22.75985   0.00000  1        8
siesta:      2.30256  25.44831   0.00000  1        9
siesta:     -4.68258  21.41544   0.00000  1       10
siesta:     -2.35420  22.75985   0.00000  1       11
siesta:     -2.35420  25.44831   0.00000  1       12
siesta:     -9.33934  21.41544   0.00000  1       13
siesta:     -7.01096  22.75985   0.00000  1       14
siesta:     -7.01096  25.44831   0.00000  1       15
siesta:    -11.66772  22.75985   0.00000  1       16
siesta:    -11.66772  25.44831   0.00000  1       17
siesta:     -9.33934  26.79272   0.00000  1       18
siesta:      4.63094  26.79272   0.00000  1       19
siesta:     -0.02582  26.79272   0.00000  1       20
siesta:     -4.68258  26.79272   0.00000  1       21
siesta:     -0.02582   2.59549   0.00000  2       22
siesta:     -0.02582   5.28395   0.00000  2       23
siesta:     -2.35420  38.89134   0.00000  2       24
siesta:     -2.35420  41.57980   0.00000  2       25
siesta:      2.30256  38.89134   0.00000  2       26
siesta:      2.30256  41.57980   0.00000  2       27
siesta:      4.63094  34.85847   0.00000  2       28
siesta:      4.63094  37.54693   0.00000  2       29
siesta:      6.95932  30.82560   0.00000  2       30
siesta:      6.95932  33.51406   0.00000  2       31
siesta:      9.28770  29.48119   0.00000  2       32
siesta:     -4.68258  34.85847   0.00000  2       33
siesta:     -4.68258  37.54693   0.00000  2       34
siesta:      2.30256   6.62836   0.00000  2       35
siesta:      2.30256   9.31683   0.00000  2       36
siesta:      4.63094  10.66124   0.00000  2       37
siesta:      4.63094  13.34970   0.00000  2       38
siesta:      6.95932  14.69411   0.00000  2       39
siesta:      6.95932  17.38257   0.00000  2       40
siesta:      9.28770  18.72698   0.00000  2       41
siesta:     11.61608  25.44831   0.00000  2       42
siesta:     -2.35420   6.62836   0.00000  2       43
siesta:     -2.35420   9.31683   0.00000  2       44
siesta:     -0.02582  10.66124   0.00000  2       45
siesta:     -0.02582  13.34970   0.00000  2       46
siesta:      2.30256  14.69411   0.00000  2       47
siesta:      2.30256  17.38257   0.00000  2       48
siesta:      4.63094  18.72698   0.00000  2       49
siesta:     -4.68258  10.66124   0.00000  2       50
siesta:     -4.68258  13.34970   0.00000  2       51
siesta:     -2.35420  14.69411   0.00000  2       52
siesta:     -2.35420  17.38257   0.00000  2       53
siesta:     -0.02582  18.72698   0.00000  2       54
siesta:     -7.01096  14.69411   0.00000  2       55
siesta:     -7.01096  17.38257   0.00000  2       56
siesta:     -4.68258  18.72698   0.00000  2       57
siesta:     -9.33934  18.72698   0.00000  2       58
siesta:     -9.33934  29.48119   0.00000  2       59
siesta:      4.63094  29.48119   0.00000  2       60
siesta:     -0.02582  29.48119   0.00000  2       61
siesta:     -4.68258  29.48119   0.00000  2       62
siesta:      2.30256  30.82560   0.00000  2       63
siesta:      2.30256  33.51406   0.00000  2       64
siesta:     -2.35420  30.82560   0.00000  2       65
siesta:     -2.35420  33.51406   0.00000  2       66
siesta:     -7.01096  30.82560   0.00000  2       67
siesta:     -7.01096  33.51406   0.00000  2       68
siesta:     -0.02582  34.85847   0.00000  2       69
siesta:     -0.02582  37.54693   0.00000  2       70
siesta:     -0.02582  42.92421   0.00000  2       71
siesta:     -0.02582  45.61267   0.00000  2       72

siesta: System type = slab      

initatomlists: Number of atoms, orbitals, and projectors:     72   936  1152

siesta: ******************** Simulation parameters ****************************
siesta:
siesta: The following are some of the parameters of the simulation.
siesta: A complete list of the parameters used, including default values,
siesta: can be found in file out.fdf
siesta:
redata: Non-Collinear-spin run           =     F
redata: SpinPolarized (Up/Down) run      =     F
redata: Number of spin components        =     1
redata: Long output                      =     F
redata: Number of Atomic Species         =        2
redata: Charge density info will appear in .RHO file
redata: Write Mulliken Pop.              =     NO
redata: Mesh Cutoff                      =   200.0000  Ry
redata: Net charge of the system         =     0.0000 |e|
redata: Max. number of SCF Iter          =      500
redata: SCF convergence failure will abort job
redata: Performing Pulay mixing using    =    10 iterations
redata: Mix DM in first SCF step ?       =     F
redata: Write Pulay info on disk?        =     F
redata: Discard 1st Pulay DM after  kick =     F
redata: New DM Mixing Weight             =     0.0500
redata: New DM Occupancy tolerance       = 0.000000000001
redata: No kicks to SCF
redata: DM Mixing Weight for Kicks       =     0.5000
redata: DM Tolerance for SCF             =     0.000100
redata: Require Energy convergence for SCF =     F
redata: DM Energy tolerance for SCF      =     0.000100 eV
redata: Require Harris convergence for SCF =     F
redata: DM Harris energy tolerance for SCF =     0.000100 eV
redata: Using Saved Data (generic)   =     F
redata: Use continuation files for DM    =     T
redata: Neglect nonoverlap interactions  =     F
redata: Method of Calculation            =     Diagonalization
redata: Divide and Conquer               =     T
redata: Electronic Temperature           =     0.0019  Ry
redata: Fix the spin of the system       =     F
redata: Dynamics option                  =     Verlet MD run
redata: Initial MD time step             =        1
redata:   Final MD time step             =        1
redata: Length of MD time step           =     1.0000  fs
redata: Initial Temperature of MD run    =     0.0000  K
redata: Perform a MD quench              =     F
redata: ***********************************************************************
Total number of electrons:   267.000000
Total ionic charge:   267.000000

* ProcessorY, Blocksize:    2  24

k-point displ. along   1 input, could be:     0.50    0.00
k-point displ. along   2 input, could be:     0.50    0.00
 Kpoints in:          231 . Kpoints trimmed:          231

siesta: k-grid: Number of k-points =   231
siesta: k-grid: Cutoff (effective) =     5.000 Ang
siesta: k-grid: Supercell and displacements
siesta: k-grid:   21   0   0      0.500
siesta: k-grid:    0  21   0      0.500
siesta: k-grid:    0   0   1      0.000
Naive supercell factors:     2    2    2

superc: Internal auxiliary supercell:     2 x     2 x     2  =       8
superc: Number of atoms, orbitals, and projectors:    576   7488   9216

* Maximum dynamic memory allocated =     4 MB

siesta:                 ==============================
                            Begin MD step =      1
                        ==============================

superc: Internal auxiliary supercell:     2 x     2 x     2  =       8
superc: Number of atoms, orbitals, and projectors:    576   7488   9216

outcell: Unit cell vectors (Ang):
       12.804619    7.392750    0.000000
        0.000000   14.785500    0.000000
        0.000000    0.000000   10.000000

outcell: Cell vector modules (Ang)   :   14.785500   14.785500   10.000000
outcell: Cell angles (23,13,12) (deg):     90.0000     90.0000     60.0000
outcell: Cell volume (Ang**3)        :   1893.2269
New_DM. Step:     1
Initializing Density Matrix...

InitMesh: MESH =   120 x   120 x    90 =     1296000
InitMesh: Mesh cutoff (required, used) =   200.000   223.865 Ry

* Maximum dynamic memory allocated =   220 MB

stepf: Fermi-Dirac step function

siesta: Program's energy decomposition (eV):
siesta: Ebs     =     -5551.032677
siesta: Eions   =     15713.820136
siesta: Ena     =      4234.482244
siesta: Ekin    =      5270.679987
siesta: Enl     =       810.171693
siesta: DEna    =        -0.000008
siesta: DUscf   =         0.000000
siesta: DUext   =         0.000000
siesta: Exc     =     -4216.227699
siesta: eta*DQ  =         0.000000
siesta: Emadel  =         0.000000
siesta: Emeta   =         0.000000
siesta: Emolmec =         0.000000
siesta: Ekinion =         0.000000
siesta: Eharris =     -9281.974894
siesta: Etot    =     -9614.713919
siesta: FreeEng =     -9614.713919

siesta: iscf   Eharris(eV)      E_KS(eV)   FreeEng(eV)   dDmax  Ef(eV)
siesta:    1    -9281.9749    -9614.7139    -9614.7139  6.3111 -8.5025
timer: Routine,Calls,Time,% = IterSCF        1    4501.296  99.72
elaps: Routine,Calls,Wall,% = IterSCF        1     563.434  99.72
siesta:    2   -12014.1674    -8680.4522    -8680.5060 15.3813 -1.7325
siesta:    3    -9198.2857    -9461.7797    -9461.8049  3.4850 -6.7039
siesta:    4    -9181.4449    -9312.9669    -9313.0283  1.3776 -5.4836
siesta:    5    -9149.5871    -9229.6025    -9229.6350  0.7817 -5.0672
siesta:    6    -9131.9035    -9205.2755    -9205.3274  0.7091 -5.0504
siesta:    7    -9125.7940    -9188.1019    -9188.1502  0.6368 -5.0518
siesta:    8    -9123.6905    -9175.1909    -9175.2417  0.5751 -5.1166
siesta:    9    -9124.0743    -9144.1127    -9144.1631  0.3580 -5.1368
siesta:   10    -9122.7104    -9134.9490    -9134.9896  0.2969 -5.1257
siesta:   11    -9121.0072    -9117.0349    -9117.0857  0.1859 -5.1063
siesta:   12    -9121.3288    -9105.4442    -9105.5004  0.1672 -5.0927
siesta:   13    -9120.4302    -9103.9959    -9104.0582  0.1039 -5.0792
siesta:   14    -9120.2739    -9105.7514    -9105.8089  0.0879 -5.0883
siesta:   15    -9120.1057    -9110.2291    -9110.2828  0.0444 -5.1196
siesta:   16    -9120.0755    -9111.6180    -9111.6674  0.0325 -5.1301
siesta:   17    -9120.0498    -9115.4364    -9115.4851  0.0182 -5.1375
siesta:   18    -9120.0467    -9116.3136    -9116.3639  0.0126 -5.1369
siesta:   19    -9120.0416    -9117.7644    -9117.8152  0.0094 -5.1321
siesta:   20    -9120.0406    -9118.2452    -9118.2960  0.0066 -5.1291
siesta:   21    -9120.0400    -9118.8570    -9118.9075  0.0052 -5.1269
siesta:   22    -9120.0395    -9119.1407    -9119.1913  0.0034 -5.1253
siesta:   23    -9120.0391    -9119.6062    -9119.6568  0.0019 -5.1245
siesta:   24    -9120.0389    -9119.8400    -9119.8906  0.0012 -5.1245
siesta:   25    -9120.0388    -9119.9446    -9119.9953  0.0009 -5.1247
siesta:   26    -9120.0387    -9119.9619    -9120.0126  0.0006 -5.1253
siesta:   27    -9120.0387    -9119.9910    -9120.0417  0.0004 -5.1256
siesta:   28    -9120.0387    -9119.9778    -9120.0286  0.0003 -5.1257
siesta:   29    -9120.0387    -9119.9950    -9120.0458  0.0003 -5.1258
siesta:   30    -9120.0387    -9120.0077    -9120.0584  0.0002 -5.1259
siesta:   31    -9120.0387    -9120.0200    -9120.0707  0.0001 -5.1259
siesta:   32    -9120.0387    -9120.0222    -9120.0730  0.0001 -5.1259
siesta:   33    -9120.0387    -9120.0245    -9120.0752  0.0001 -5.1259

siesta: E_KS(eV) =            -9120.0308

siesta: E_KS - E_eggbox =     -9120.0308

siesta: Atomic forces (eV/Ang):
----------------------------------------
   Tot   -0.100107   -0.051560    0.000000
----------------------------------------
   Max  562.820968
   Res  161.248179    sqrt( Sum f_i^2 / 3N )
----------------------------------------
   Max  562.820968    constrained

Stress-tensor-Voigt (kbar):     -841.14    -2986.31       -0.74       -4.25        0.00        0.00
(Free)E + p*V (eV/cell)    -7612.2226
Target enthalpy (eV/cell)    -9120.0815

siesta: Stress tensor (static) (eV/Ang**3):
        -0.524996   -0.002655    0.000000
        -0.002655   -1.863888    0.000000
         0.000000    0.000000   -0.000464

siesta: Pressure (static):       1276.06597867  kBar

siesta: Stress tensor (total) (eV/Ang**3):
        -0.524996   -0.002655    0.000000
        -0.002655   -1.863888    0.000000
         0.000000    0.000000   -0.000464

siesta: Pressure (total):       1276.06597867  kBar

siesta: Temp_ion =       0.000 K

* Maximum dynamic memory allocated =   236 MB
Computing bands...

siesta: Program's energy decomposition (eV):
siesta: Ebs     =     -4206.063019
siesta: Eions   =     15713.820136
siesta: Ena     =      4234.482244
siesta: Ekin    =      8249.132899
siesta: Enl     =      -782.977034
siesta: DEna    =      -823.614684
siesta: DUscf   =       109.241753
siesta: DUext   =         0.000000
siesta: Exc     =     -4392.475833
siesta: eta*DQ  =         0.000000
siesta: Emadel  =         0.000000
siesta: Emeta   =         0.000000
siesta: Emolmec =         0.000000
siesta: Ekinion =         0.000000
siesta: Eharris =     -9120.038730
siesta: Etot    =     -9120.030791
siesta: FreeEng =     -9120.081521

siesta: Final energy (eV):
siesta:  Band Struct. =   -4206.063019
siesta:       Kinetic =    8249.132899
siesta:       Hartree =   27971.152784
siesta:    Ext. field =       0.000000
siesta:   Exch.-corr. =   -4392.475833
siesta:  Ion-electron =  -63943.298261
siesta:       Ion-ion =   22995.457621
siesta:       Ekinion =       0.000000
siesta:         Total =   -9120.030791

siesta: Atomic forces (eV/Ang):
siesta:      1    9.527941    3.543786    0.000000
siesta:      2    4.503001   -7.231244    0.000000
siesta:      3    6.294261    3.289746    0.000000
siesta:      4   -0.475339   -5.072416    0.000000
siesta:      5   -1.236064    0.177971    0.000000
siesta:      6   -1.446145   -0.548703    0.000000
siesta:      7    0.013875   -4.639877    0.000000
siesta:      8   -0.390062    0.922538    0.000000
siesta:      9   -0.439633   -0.595880    0.000000
siesta:     10    0.650534   -4.853833    0.000000
siesta:     11    0.468967    0.620925    0.000000
siesta:     12    0.409403   -0.656345    0.000000
siesta:     13   -4.801805   -6.836871    0.000000
siesta:     14    0.995557    0.060337    0.000000
siesta:     15    1.110846   -0.194630    0.000000
siesta:     16   -6.026354   -2.733189    0.000000
siesta:     17   -6.001977    2.818515    0.000000
siesta:     18   -4.919328    6.883333    0.000000
siesta:     19   -0.535620    4.874462    0.000000
siesta:     20    0.041294    4.537248    0.000000
siesta:     21    0.701230    5.026185    0.000000
siesta:     22    0.029323  551.156712    0.000000
siesta:     23   -0.057804 -127.763745    0.000000
siesta:     24    1.937423  126.914194    0.000000
siesta:     25  -14.674168 -547.670747    0.000000
siesta:     26   -1.947210  126.940509    0.000000
siesta:     27   14.427085 -547.371100    0.000000
siesta:     28   26.432799    5.540092    0.000000
siesta:     29   33.249380 -548.698448    0.000000
siesta:     30    2.905874    1.471251    0.000000
siesta:     31   -2.034178    1.818617    0.000000
siesta:     32   -2.744065    3.462077    0.000000
siesta:     33  -26.302612    5.734182    0.000000
siesta:     34  -33.170733 -548.694124    0.000000
siesta:     35   14.551311  547.544599    0.000000
siesta:     36   -1.953741 -126.894445    0.000000
siesta:     37   33.017069  548.623177    0.000000
siesta:     38   26.332270   -5.562587    0.000000
siesta:     39   -2.053564   -1.634173    0.000000
siesta:     40    2.462927   -2.147247    0.000000
siesta:     41   -2.830555   -1.378218    0.000000
siesta:     42    1.865827   -0.646368    0.000000
siesta:     43  -14.630232  547.580937    0.000000
siesta:     44    1.983395 -126.960260    0.000000
siesta:     45    0.162046  542.922736    0.000000
siesta:     46   -0.009361 -125.520836    0.000000
siesta:     47   24.443974  556.615238    0.000000
siesta:     48   21.682253   -5.788917    0.000000
siesta:     49   -1.084731   -1.479901    0.000000
siesta:     50  -33.246016  548.751539    0.000000
siesta:     51  -26.536565   -5.818088    0.000000
siesta:     52  -23.934277  556.973570    0.000000
siesta:     53  -21.783295   -5.714252    0.000000
siesta:     54   -0.100949  562.820968    0.000000
siesta:     55    2.236135   -1.399820    0.000000
siesta:     56   -2.609859   -2.129583    0.000000
siesta:     57    1.170847   -1.334238    0.000000
siesta:     58    2.643355   -1.360176    0.000000
siesta:     59    2.662994    1.312749    0.000000
siesta:     60   -1.637868    1.403554    0.000000
siesta:     61    0.021254 -562.730678    0.000000
siesta:     62    1.074027    1.179236    0.000000
siesta:     63   22.022988    5.521377    0.000000
siesta:     64   24.181249 -556.876360    0.000000
siesta:     65  -21.772748    5.799244    0.000000
siesta:     66  -24.187374 -556.781922    0.000000
siesta:     67   -2.595343    2.092477    0.000000
siesta:     68    1.982342    1.597365    0.000000
siesta:     69   -0.024092  125.391691    0.000000
siesta:     70   -0.071268 -542.868707    0.000000
siesta:     71   -0.116377  127.971169    0.000000
siesta:     72    0.086152 -551.357935    0.000000
siesta: ----------------------------------------
siesta:    Tot   -0.100107   -0.051560    0.000000

siesta: Stress tensor (static) (eV/Ang**3):
siesta:    -0.524996   -0.002655    0.000000
siesta:    -0.002655   -1.863888    0.000000
siesta:     0.000000    0.000000   -0.000464

siesta: Cell volume =       1893.226884 Ang**3

siesta: Pressure (static):
siesta:                Solid            Molecule  Units
siesta:           0.00867435          0.12578001  Ry/Bohr**3
siesta:           0.79644913         11.54869310  eV/Ang**3
siesta:        1276.06597867      18503.24623094  kBar
(Free)E+ p_basis*V_orbitals  =       -9082.708882
(Free)Eharris+ p_basis*V_orbitals  =       -9082.723154

siesta: Electric dipole (a.u.)  =    0.000000    0.000000    0.000000
siesta: Electric dipole (Debye) =    0.000000    0.000000    0.000000

* Maximum dynamic memory allocated : Node    0 =   236 MB
* Maximum dynamic memory allocated : Node    1 =    82 MB
* Maximum dynamic memory allocated : Node    2 =    85 MB
* Maximum dynamic memory allocated : Node    3 =   224 MB
* Maximum dynamic memory allocated : Node    4 =   234 MB
* Maximum dynamic memory allocated : Node    5 =    85 MB
* Maximum dynamic memory allocated : Node    6 =    87 MB
* Maximum dynamic memory allocated : Node    7 =   215 MB

* Maximum memory occured during matrixMtoO                    

timer: CPU execution times:
timer:  Routine       Calls   Time/call    Tot.time        %
timer:  siesta            1  147213.835  147213.835   100.00
timer:  Setup             1       3.888       3.888     0.00
timer:  bands             3     269.165     807.496     0.55
timer:  writewave         1       0.042       0.042     0.00
timer:  KSV_init          1       0.007       0.007     0.00
timer:  IterMD            1  146396.755  146396.755    99.44
timer:  hsparse           1       0.399       0.399     0.00
timer:  overlap           1       7.791       7.791     0.01
timer:  IterSCF          33    4429.349  146168.516    99.29
timer:  kinefsm           2       4.042       8.083     0.01
timer:  nlefsm            2      21.411      42.821     0.03
timer:  DHSCF            34     118.996    4045.853     2.75
timer:  DHSCF1            1       0.991       0.991     0.00
timer:  DHSCF2            1      43.980      43.980     0.03
timer:  REORD           274       0.010       2.792     0.00
timer:  POISON           35       2.243      78.495     0.05
timer:  DHSCF3           34     116.341    3955.593     2.69
timer:  rhoofd           34      25.727     874.727     0.59
timer:  cellXC           34       3.540     120.368     0.08
timer:  vmat             34      57.321    1948.921     1.32
timer:  MolMec            2       0.000       0.000     0.00
timer:  diagon           33    4308.839  142191.695    96.59
timer:  c-eigval       7744       6.676   51701.331    35.12
timer:  c-buildHS      7744       0.123     953.153     0.65
timer:  cdiag         15367       6.899  106024.093    72.02
timer:  cdiag1        15367       0.427    6554.083     4.45
timer:  cdiag2        15367       1.910   29353.029    19.94
timer:  cdiag3        15367       3.940   60541.718    41.13
timer:  cdiag4        15367       0.225    3451.946     2.34
timer:  c-eigvec       7623       7.318   55782.031    37.89
timer:  c-buildD       7623       4.654   35474.124    24.10
timer:  DHSCF4            1      43.445      43.445     0.03
timer:  dfscf             1      40.750      40.750     0.03
timer:  overfsm           1       0.488       0.488     0.00
timer:  optical           1       5.006       5.006     0.00
  

elaps: ELAPSED times:
elaps:  Routine       Calls   Time/call    Tot.time        %
elaps:  siesta            1   18423.619   18423.619   100.00
elaps:  Setup             1       0.502       0.502     0.00
elaps:  bands             3      33.698     101.094     0.55
elaps:  writewave         1       0.006       0.006     0.00
elaps:  KSV_init          1       0.001       0.001     0.00
elaps:  IterMD            1   18321.362   18321.362    99.44
elaps:  hsparse           1       0.049       0.049     0.00
elaps:  overlap           1       0.978       0.978     0.01
elaps:  IterSCF          33     554.332   18292.949    99.29
elaps:  kinefsm           2       0.505       1.010     0.01
elaps:  nlefsm            2       2.798       5.595     0.03
elaps:  DHSCF            34      15.032     511.100     2.77
elaps:  DHSCF1            1       0.127       0.127     0.00
elaps:  DHSCF2            1       5.501       5.501     0.03
elaps:  REORD           274       0.001       0.372     0.00
elaps:  POISON           35       0.280       9.807     0.05
elaps:  DHSCF3           34      14.555     494.862     2.69
elaps:  rhoofd           34       6.487     220.547     1.20
elaps:  cellXC           34       0.442      15.040     0.08
elaps:  vmat             34       7.171     243.811     1.32
elaps:  MolMec            2       0.000       0.000     0.00
elaps:  diagon           33     539.265   17795.756    96.59
elaps:  c-eigval       7744       0.835    6468.863    35.11
elaps:  c-buildHS      7744       0.017     130.594     0.71
elaps:  cdiag         15367       0.849   13051.836    70.84
elaps:  cdiag1        15367       0.053     811.705     4.41
elaps:  cdiag2        15367       0.239    3672.701    19.93
elaps:  cdiag3        15367       0.494    7585.488    41.17
elaps:  cdiag4        15367       0.028     436.609     2.37
elaps:  c-eigvec       7623       0.893    6807.233    36.95
elaps:  c-buildD       7623       0.605    4614.519    25.05
elaps:  DHSCF4            1      10.359      10.359     0.06
elaps:  dfscf             1       9.829       9.829     0.05
elaps:  overfsm           1       0.060       0.060     0.00
elaps:  optical           1       0.001       0.001     0.00
  
>> End of run:  28-APR-2016  22:13:26
