Siesta Version:                                        siesta-3.2-pl-3
Architecture  : x86_64-unknown-linux-gnu--unknown
Compiler flags: mpiifort -g -O2 -fPIC -xSSE4.1 -fp-model source -shared-intel 
PARALLEL version

* Running on    8 nodes in parallel
>> Start of run:  28-APR-2016  13:09:07

                           ***********************       
                           *  WELCOME TO SIESTA  *       
                           ***********************       

reinit: Reading from standard input
************************** Dump of input data file ****************************
#(1) General system descriptors
SystemName            GRP_doping    # Descriptive name of the system
SystemLabel           GRP_doping    # Short name for naming files
%include STRUCT.fdf
%include KPT.fdf
%include BASIS.fdf
#%include TS.fdf # for transiesta calculation
#(4) DFT, Grid, SCF
XC.functional         GGA           # LDA or GGA (default = LDA)
XC.authors            PBE           # CA (Ceperley-Aldr) = PZ
                                    #    (Perdew-Zunger) - LDA - Default
                                    # PW92 (Perdew-Wang-92) - LDA
                                    # PBE (Perdew-Burke-Ernzerhof) - GGA
MeshCutoff            200.000000    Ry      # Default: 50.0 Ry ~ 0.444 Bohr
                                    #         100.0 Ry ~ 0.314 Bohr
MaxSCFIterations      500           # Default: 50
DM.MixingWeight       0.05          # Default: 0.25
DM.NumberPulay        10            # Default: 0
DM.PulayOnFile        F             # SystemLabel.P1, SystemLabel.P2
DM.Tolerance          1.d-4         # Default: 1.d-4
DM.UseSaveDM          .true.        # because of the bug
SCFMustConverge       .true.
NeglNonOverlapInt     F             # Default: F
#(5) Eigenvalue problem: order-N or diagonalization
SolutionMethod        Diagon        # or Transiesta
ElectronicTemperature 300.0 K       # Default: 300.0 K
#(6) Molecular dynamics and relaxations
#MD.TypeOfRun          CG            # Type of dynamics:
#MD.VariableCell       F
#MD.NumCGsteps         0           # 0 for single-point / 100 for gopt
#MD.MaxCGDispl         0.2 Bohr      # Default: 0.2 Bohr
#MD.MaxForceTol        0.02 eV/Ang   # Default: 0.04 eV/Ang
#MD.MaxStressTol       1.0 GPa       # Default: 1.0 GPa
# Geometry Constraints
#%block GeometryConstraints
#	position from 1 to 44
#%endblock GeometryConstraints
BandLinesScale   pi/a
%block BandLines
 1   0.00000000  0.00000000  0.00000000
50   0.00000000  0.07809418  0.00000000
50   0.04509075  0.07809242  0.00000000
20   0.00000000  0.00000000  0.00000000
%endblock BandLines
************************** End of input data file *****************************

reinit: -----------------------------------------------------------------------
reinit: System Name: GRP_doping
reinit: -----------------------------------------------------------------------
reinit: System Label: GRP_doping                                                  
reinit: -----------------------------------------------------------------------

initatom: Reading input for the pseudopotentials and atomic orbitals ----------
 Species number:            1  Label: N Atomic number:           7
 Species number:            2  Label: C Atomic number:           6
Ground state valence configuration:   2s02  2p03
Reading pseudopotential information in formatted form from N.psf

Valence configuration for pseudopotential generation:
2s( 2.00) rc: 1.48
2p( 3.00) rc: 1.48
3d( 0.00) rc: 1.48
4f( 0.00) rc: 1.48
Ground state valence configuration:   2s02  2p02
Reading pseudopotential information in formatted form from C.psf

Valence configuration for pseudopotential generation:
2s( 2.00) rc: 1.54
2p( 2.00) rc: 1.54
3d( 0.00) rc: 1.54
4f( 0.00) rc: 1.54
For N, standard SIESTA heuristics set lmxkb to 3
 (one more than the basis l, including polarization orbitals).
Use PS.lmax or PS.KBprojectors blocks to override.
For C, standard SIESTA heuristics set lmxkb to 3
 (one more than the basis l, including polarization orbitals).
Use PS.lmax or PS.KBprojectors blocks to override.

<basis_specs>
===============================================================================
N                    Z=   7    Mass=  14.010        Charge= 0.17977+309
Lmxo=1 Lmxkb= 3    BasisType=split      Semic=F
L=0  Nsemic=0  Cnfigmx=2
          n=1  nzeta=2  polorb=0
            splnorm:   0.15000    
               vcte:    0.0000    
               rinn:    0.0000    
                rcs:    0.0000      0.0000    
            lambdas:    1.0000      1.0000    
L=1  Nsemic=0  Cnfigmx=2
          n=1  nzeta=2  polorb=1
            splnorm:   0.15000    
               vcte:    0.0000    
               rinn:    0.0000    
                rcs:    0.0000      0.0000    
            lambdas:    1.0000      1.0000    
-------------------------------------------------------------------------------
L=0  Nkbl=1  erefs: 0.17977+309
L=1  Nkbl=1  erefs: 0.17977+309
L=2  Nkbl=1  erefs: 0.17977+309
L=3  Nkbl=1  erefs: 0.17977+309
===============================================================================
</basis_specs>

atom: Called for N                     (Z =   7)

read_vps: Pseudopotential generation method:
read_vps: ATM3      Troullier-Martins                       
Total valence charge:    5.00000

read_vps: Pseudopotential includes a core correction:
read_vps: Pseudo-core for xc-correction

xc_check: Exchange-correlation functional:
xc_check: GGA Perdew, Burke & Ernzerhof 1996
V l=0 = -2*Zval/r beyond r=  1.4606
V l=1 = -2*Zval/r beyond r=  1.4606
V l=2 = -2*Zval/r beyond r=  1.4606
V l=3 = -2*Zval/r beyond r=  1.4606
All V_l potentials equal beyond r=  1.4606
This should be close to max(r_c) in ps generation
All pots = -2*Zval/r beyond r=  1.4606

VLOCAL1: 99.0% of the norm of Vloc inside     20.347 Ry
VLOCAL1: 99.9% of the norm of Vloc inside     46.372 Ry
atom: Maximum radius for 4*pi*r*r*local-pseudopot. charge    1.76189
atom: Maximum radius for r*vlocal+2*Zval:    1.53550
GHOST: No ghost state for L =  0
GHOST: No ghost state for L =  1
GHOST: No ghost state for L =  2
GHOST: No ghost state for L =  3

KBgen: Kleinman-Bylander projectors: 
   l= 0   rc=  1.634559   el= -1.363963   Ekb=  5.296955   kbcos=  0.335621
   l= 1   rc=  1.614250   el= -0.521451   Ekb= -5.259161   kbcos= -0.433408
   l= 2   rc=  1.718383   el=  0.001991   Ekb= -1.271464   kbcos= -0.007566
   l= 3   rc=  1.761893   el=  0.003093   Ekb= -0.494769   kbcos= -0.001015

KBgen: Total number of  Kleinman-Bylander projectors:   16
atom: -------------------------------------------------------------------------

atom: SANKEY-TYPE ORBITALS:
atom: Selected multiple-zeta basis: split     

SPLIT: Orbitals with angular momentum L= 0

SPLIT: Basis orbitals for state 2s

SPLIT: PAO cut-off radius determined from an
SPLIT: energy shift=  0.007350 Ry

   izeta = 1
                 lambda =    1.000000
                     rc =    4.071465
                 energy =   -1.356470
                kinetic =    1.176977
    potential(screened) =   -2.533447
       potential(ionic) =   -8.057990

   izeta = 2
                 rmatch =    2.905100
              splitnorm =    0.150000
                 energy =   -1.158343
                kinetic =    1.813009
    potential(screened) =   -2.971352
       potential(ionic) =   -8.901931

SPLIT: Orbitals with angular momentum L= 1

SPLIT: Basis orbitals for state 2p

SPLIT: PAO cut-off radius determined from an
SPLIT: energy shift=  0.007350 Ry

   izeta = 1
                 lambda =    1.000000
                     rc =    4.972977
                 energy =   -0.513884
                kinetic =    3.441732
    potential(screened) =   -3.955616
       potential(ionic) =   -9.287901

   izeta = 2
                 rmatch =    3.054066
              splitnorm =    0.150000
                 energy =   -0.318226
                kinetic =    5.125348
    potential(screened) =   -5.443573
       potential(ionic) =  -11.380999

POLgen: Perturbative polarization orbital with L=  2

POLgen: Polarization orbital for state 2p

   izeta = 1
                     rc =    4.972977
                 energy =    1.607437
                kinetic =    3.268125
    potential(screened) =   -1.660688
       potential(ionic) =   -5.973652
atom: Total number of Sankey-type orbitals: 13

atm_pop: Valence configuration (for local Pseudopot. screening):
 2s( 2.00)                                                            
 2p( 3.00)                                                            
Vna: chval, zval:    5.00000   5.00000

Vna:  Cut-off radius for the neutral-atom potential:   4.972977
comcore: Pseudo-core radius Rcore=  1.554824

atom: _________________________________________________________________________

<basis_specs>
===============================================================================
C                    Z=   6    Mass=  12.010        Charge= 0.17977+309
Lmxo=1 Lmxkb= 3    BasisType=split      Semic=F
L=0  Nsemic=0  Cnfigmx=2
          n=1  nzeta=2  polorb=0
            splnorm:   0.15000    
               vcte:    0.0000    
               rinn:    0.0000    
                rcs:    0.0000      0.0000    
            lambdas:    1.0000      1.0000    
L=1  Nsemic=0  Cnfigmx=2
          n=1  nzeta=2  polorb=1
            splnorm:   0.15000    
               vcte:    0.0000    
               rinn:    0.0000    
                rcs:    0.0000      0.0000    
            lambdas:    1.0000      1.0000    
-------------------------------------------------------------------------------
L=0  Nkbl=1  erefs: 0.17977+309
L=1  Nkbl=1  erefs: 0.17977+309
L=2  Nkbl=1  erefs: 0.17977+309
L=3  Nkbl=1  erefs: 0.17977+309
===============================================================================
</basis_specs>

atom: Called for C                     (Z =   6)

read_vps: Pseudopotential generation method:
read_vps: ATM3      Troullier-Martins                       
Total valence charge:    4.00000

read_vps: Pseudopotential includes a core correction:
read_vps: Pseudo-core for xc-correction

xc_check: Exchange-correlation functional:
xc_check: GGA Perdew, Burke & Ernzerhof 1996
V l=0 = -2*Zval/r beyond r=  1.5227
V l=1 = -2*Zval/r beyond r=  1.5227
V l=2 = -2*Zval/r beyond r=  1.5227
V l=3 = -2*Zval/r beyond r=  1.5038
All V_l potentials equal beyond r=  1.5227
This should be close to max(r_c) in ps generation
All pots = -2*Zval/r beyond r=  1.5227

VLOCAL1: 99.0% of the norm of Vloc inside     18.722 Ry
VLOCAL1: 99.9% of the norm of Vloc inside     42.668 Ry
atom: Maximum radius for 4*pi*r*r*local-pseudopot. charge    1.83678
atom: Maximum radius for r*vlocal+2*Zval:    1.58088
GHOST: No ghost state for L =  0
GHOST: No ghost state for L =  1
GHOST: No ghost state for L =  2
GHOST: No ghost state for L =  3

KBgen: Kleinman-Bylander projectors: 
   l= 0   rc=  1.704034   el= -1.009801   Ekb=  5.335044   kbcos=  0.316824
   l= 1   rc=  1.704034   el= -0.388707   Ekb= -3.785862   kbcos= -0.366464
   l= 2   rc=  1.791422   el=  0.001971   Ekb= -0.970471   kbcos= -0.009212
   l= 3   rc=  1.859892   el=  0.003065   Ekb= -0.399525   kbcos= -0.001223

KBgen: Total number of  Kleinman-Bylander projectors:   16
atom: -------------------------------------------------------------------------

atom: SANKEY-TYPE ORBITALS:
atom: Selected multiple-zeta basis: split     

SPLIT: Orbitals with angular momentum L= 0

SPLIT: Basis orbitals for state 2s

SPLIT: PAO cut-off radius determined from an
SPLIT: energy shift=  0.007350 Ry

   izeta = 1
                 lambda =    1.000000
                     rc =    4.632753
                 energy =   -1.002270
                kinetic =    0.855760
    potential(screened) =   -1.858031
       potential(ionic) =   -5.417575

   izeta = 2
                 rmatch =    3.431921
              splitnorm =    0.150000
                 energy =   -0.867111
                kinetic =    1.300804
    potential(screened) =   -2.167915
       potential(ionic) =   -5.962684

SPLIT: Orbitals with angular momentum L= 1

SPLIT: Basis orbitals for state 2p

SPLIT: PAO cut-off radius determined from an
SPLIT: energy shift=  0.007350 Ry

   izeta = 1
                 lambda =    1.000000
                     rc =    5.658549
                 energy =   -0.381140
                kinetic =    2.399701
    potential(screened) =   -2.780841
       potential(ionic) =   -6.206085

   izeta = 2
                 rmatch =    3.653288
              splitnorm =    0.150000
                 energy =   -0.249149
                kinetic =    3.542762
    potential(screened) =   -3.791911
       potential(ionic) =   -7.581078

POLgen: Perturbative polarization orbital with L=  2

POLgen: Polarization orbital for state 2p

   izeta = 1
                     rc =    5.658549
                 energy =    1.109913
                kinetic =    2.304789
    potential(screened) =   -1.194876
       potential(ionic) =   -4.013592
atom: Total number of Sankey-type orbitals: 13

atm_pop: Valence configuration (for local Pseudopot. screening):
 2s( 2.00)                                                            
 2p( 2.00)                                                            
Vna: chval, zval:    4.00000   4.00000

Vna:  Cut-off radius for the neutral-atom potential:   5.658549
comcore: Pseudo-core radius Rcore=  1.791422

atom: _________________________________________________________________________

prinput: Basis input ----------------------------------------------------------

PAO.BasisType split     

%block ChemicalSpeciesLabel
    1    7 N                       # Species index, atomic number, species label
    2    6 C                       # Species index, atomic number, species label
%endblock ChemicalSpeciesLabel

%block PAO.Basis                 # Define Basis set
N                     2                    # Species label, number of l-shells
 n=2   0   2                         # n, l, Nzeta 
   4.071      2.905   
   1.000      1.000   
 n=2   1   2 P   1                   # n, l, Nzeta, Polarization, NzetaPol
   4.973      3.054   
   1.000      1.000   
C                     2                    # Species label, number of l-shells
 n=2   0   2                         # n, l, Nzeta 
   4.633      3.432   
   1.000      1.000   
 n=2   1   2 P   1                   # n, l, Nzeta, Polarization, NzetaPol
   5.659      3.653   
   1.000      1.000   
%endblock PAO.Basis

prinput: ----------------------------------------------------------------------

coor:   Atomic-coordinates input format  =     Fractional

siesta: Atomic coordinates (Bohr) and species
siesta:     -2.35420  38.89134   0.00000  1        1
siesta:     -2.35420  41.57980   0.00000  1        2
siesta:      2.30256  38.89134   0.00000  1        3
siesta:      2.30256  41.57980   0.00000  1        4
siesta:     -0.02582  13.34970   0.00000  1        5
siesta:     -4.68258  10.66124   0.00000  1        6
siesta:     -4.68258  13.34970   0.00000  1        7
siesta:     -2.35420  14.69411   0.00000  1        8
siesta:     -2.35420  17.38257   0.00000  1        9
siesta:     -0.02582  18.72698   0.00000  1       10
siesta:     -7.01096  22.75985   0.00000  1       11
siesta:     -7.01096  25.44831   0.00000  1       12
siesta:    -11.66772  22.75985   0.00000  1       13
siesta:    -11.66772  25.44831   0.00000  1       14
siesta:     -9.33934  26.79272   0.00000  1       15
siesta:     -9.33934  29.48119   0.00000  1       16
siesta:     -4.68258  26.79272   0.00000  1       17
siesta:     -7.01096  30.82560   0.00000  1       18
siesta:     -0.02582  37.54693   0.00000  1       19
siesta:     -0.02582  42.92421   0.00000  1       20
siesta:     -0.02582   2.59549   0.00000  2       21
siesta:     -0.02582   5.28395   0.00000  2       22
siesta:      4.63094  34.85847   0.00000  2       23
siesta:      4.63094  37.54693   0.00000  2       24
siesta:      6.95932  30.82560   0.00000  2       25
siesta:      6.95932  33.51406   0.00000  2       26
siesta:      9.28770  26.79272   0.00000  2       27
siesta:      9.28770  29.48119   0.00000  2       28
siesta:     -4.68258  34.85847   0.00000  2       29
siesta:     -4.68258  37.54693   0.00000  2       30
siesta:      2.30256   6.62836   0.00000  2       31
siesta:      2.30256   9.31683   0.00000  2       32
siesta:      4.63094  10.66124   0.00000  2       33
siesta:      4.63094  13.34970   0.00000  2       34
siesta:      6.95932  14.69411   0.00000  2       35
siesta:      6.95932  17.38257   0.00000  2       36
siesta:      9.28770  18.72698   0.00000  2       37
siesta:      9.28770  21.41544   0.00000  2       38
siesta:     11.61608  22.75985   0.00000  2       39
siesta:     11.61608  25.44831   0.00000  2       40
siesta:     -2.35420   6.62836   0.00000  2       41
siesta:     -2.35420   9.31683   0.00000  2       42
siesta:     -0.02582  10.66124   0.00000  2       43
siesta:      2.30256  14.69411   0.00000  2       44
siesta:      2.30256  17.38257   0.00000  2       45
siesta:      4.63094  18.72698   0.00000  2       46
siesta:      4.63094  21.41544   0.00000  2       47
siesta:      6.95932  22.75985   0.00000  2       48
siesta:      6.95932  25.44831   0.00000  2       49
siesta:     -0.02582  21.41544   0.00000  2       50
siesta:      2.30256  22.75985   0.00000  2       51
siesta:      2.30256  25.44831   0.00000  2       52
siesta:     -7.01096  14.69411   0.00000  2       53
siesta:     -7.01096  17.38257   0.00000  2       54
siesta:     -4.68258  18.72698   0.00000  2       55
siesta:     -4.68258  21.41544   0.00000  2       56
siesta:     -2.35420  22.75985   0.00000  2       57
siesta:     -2.35420  25.44831   0.00000  2       58
siesta:     -9.33934  18.72698   0.00000  2       59
siesta:     -9.33934  21.41544   0.00000  2       60
siesta:      4.63094  26.79272   0.00000  2       61
siesta:      4.63094  29.48119   0.00000  2       62
siesta:     -0.02582  26.79272   0.00000  2       63
siesta:     -0.02582  29.48119   0.00000  2       64
siesta:     -4.68258  29.48119   0.00000  2       65
siesta:      2.30256  30.82560   0.00000  2       66
siesta:      2.30256  33.51406   0.00000  2       67
siesta:     -2.35420  30.82560   0.00000  2       68
siesta:     -2.35420  33.51406   0.00000  2       69
siesta:     -7.01096  33.51406   0.00000  2       70
siesta:     -0.02582  34.85847   0.00000  2       71
siesta:     -0.02582  45.61267   0.00000  2       72

siesta: System type = slab      

initatomlists: Number of atoms, orbitals, and projectors:     72   936  1152

siesta: ******************** Simulation parameters ****************************
siesta:
siesta: The following are some of the parameters of the simulation.
siesta: A complete list of the parameters used, including default values,
siesta: can be found in file out.fdf
siesta:
redata: Non-Collinear-spin run           =     F
redata: SpinPolarized (Up/Down) run      =     F
redata: Number of spin components        =     1
redata: Long output                      =     F
redata: Number of Atomic Species         =        2
redata: Charge density info will appear in .RHO file
redata: Write Mulliken Pop.              =     NO
redata: Mesh Cutoff                      =   200.0000  Ry
redata: Net charge of the system         =     0.0000 |e|
redata: Max. number of SCF Iter          =      500
redata: SCF convergence failure will abort job
redata: Performing Pulay mixing using    =    10 iterations
redata: Mix DM in first SCF step ?       =     F
redata: Write Pulay info on disk?        =     F
redata: Discard 1st Pulay DM after  kick =     F
redata: New DM Mixing Weight             =     0.0500
redata: New DM Occupancy tolerance       = 0.000000000001
redata: No kicks to SCF
redata: DM Mixing Weight for Kicks       =     0.5000
redata: DM Tolerance for SCF             =     0.000100
redata: Require Energy convergence for SCF =     F
redata: DM Energy tolerance for SCF      =     0.000100 eV
redata: Require Harris convergence for SCF =     F
redata: DM Harris energy tolerance for SCF =     0.000100 eV
redata: Using Saved Data (generic)   =     F
redata: Use continuation files for DM    =     T
redata: Neglect nonoverlap interactions  =     F
redata: Method of Calculation            =     Diagonalization
redata: Divide and Conquer               =     T
redata: Electronic Temperature           =     0.0019  Ry
redata: Fix the spin of the system       =     F
redata: Dynamics option                  =     Verlet MD run
redata: Initial MD time step             =        1
redata:   Final MD time step             =        1
redata: Length of MD time step           =     1.0000  fs
redata: Initial Temperature of MD run    =     0.0000  K
redata: Perform a MD quench              =     F
redata: ***********************************************************************
Total number of electrons:   308.000000
Total ionic charge:   308.000000

* ProcessorY, Blocksize:    2  24

k-point displ. along   1 input, could be:     0.50    0.00
k-point displ. along   2 input, could be:     0.50    0.00
 Kpoints in:          231 . Kpoints trimmed:          231

siesta: k-grid: Number of k-points =   231
siesta: k-grid: Cutoff (effective) =     5.000 Ang
siesta: k-grid: Supercell and displacements
siesta: k-grid:   21   0   0      0.500
siesta: k-grid:    0  21   0      0.500
siesta: k-grid:    0   0   1      0.000
Naive supercell factors:     2    2    2

superc: Internal auxiliary supercell:     2 x     2 x     2  =       8
superc: Number of atoms, orbitals, and projectors:    576   7488   9216

* Maximum dynamic memory allocated =     4 MB

siesta:                 ==============================
                            Begin MD step =      1
                        ==============================

superc: Internal auxiliary supercell:     2 x     2 x     2  =       8
superc: Number of atoms, orbitals, and projectors:    576   7488   9216

outcell: Unit cell vectors (Ang):
       12.804619    7.392750    0.000000
        0.000000   14.785500    0.000000
        0.000000    0.000000   10.000000

outcell: Cell vector modules (Ang)   :   14.785500   14.785500   10.000000
outcell: Cell angles (23,13,12) (deg):     90.0000     90.0000     60.0000
outcell: Cell volume (Ang**3)        :   1893.2269
New_DM. Step:     1
Initializing Density Matrix...

InitMesh: MESH =   120 x   120 x    90 =     1296000
InitMesh: Mesh cutoff (required, used) =   200.000   223.865 Ry

* Maximum dynamic memory allocated =   182 MB

stepf: Fermi-Dirac step function

siesta: Program's energy decomposition (eV):
siesta: Ebs     =     -6313.951595
siesta: Eions   =     21617.947954
siesta: Ena     =      4939.309959
siesta: Ekin    =      8056.630787
siesta: Enl     =        29.490744
siesta: DEna    =        -0.000015
siesta: DUscf   =         0.000000
siesta: DUext   =         0.000000
siesta: Exc     =     -4682.515511
siesta: eta*DQ  =         0.000000
siesta: Emadel  =         0.000000
siesta: Emeta   =         0.000000
siesta: Emolmec =         0.000000
siesta: Ekinion =         0.000000
siesta: Eharris =    -12867.591687
siesta: Etot    =    -13275.031990
siesta: FreeEng =    -13275.031990

siesta: iscf   Eharris(eV)      E_KS(eV)   FreeEng(eV)   dDmax  Ef(eV)
siesta:    1   -12867.5917   -13275.0320   -13275.0320  5.3639 -6.8522
timer: Routine,Calls,Time,% = IterSCF        1    4152.433  99.73
elaps: Routine,Calls,Wall,% = IterSCF        1     519.666  99.73
siesta:    2   -15264.3981   -12416.4578   -12416.5068 13.5129 -2.2683
siesta:    3   -12769.4916   -13029.8811   -13029.9343  1.9600 -4.7471
siesta:    4   -12760.7701   -12898.7014   -12898.7329  1.1188 -3.8891
siesta:    5   -12733.4425   -12872.8614   -12872.8741  0.8418 -3.7697
siesta:    6   -12726.2573   -12823.4881   -12823.5305  0.7437 -3.8946
siesta:    7   -12724.0238   -12815.0705   -12815.0958  0.7128 -3.8604
siesta:    8   -12722.1216   -12794.0310   -12794.0837  0.6146 -4.0795
siesta:    9   -12722.5199   -12772.6522   -12772.6995  0.5361 -4.1170
siesta:   10   -12722.6287   -12747.8109   -12747.8847  0.5079 -4.0104
siesta:   11   -12720.5401   -12731.2998   -12731.3510  0.4489 -3.9721
siesta:   12   -12721.4473   -12713.8680   -12713.9109  0.7266 -3.7781
siesta:   13   -12720.1698   -12711.6159   -12711.6404  0.3281 -3.8568
siesta:   14   -12719.5252   -12710.0598   -12710.1311  0.3163 -3.8347
siesta:   15   -12719.4665   -12706.1970   -12706.2678  0.3667 -3.7923
siesta:   16   -12719.2044   -12706.3532   -12706.4212  0.3582 -3.7785
siesta:   17   -12718.8220   -12706.2219   -12706.3004  0.3385 -3.8519
siesta:   18   -12718.6276   -12705.6298   -12705.6894  0.3172 -3.8453
siesta:   19   -12718.4448   -12707.0999   -12707.1663  0.2119 -3.8849
siesta:   20   -12718.3998   -12708.8385   -12708.9047  0.1243 -3.8787
siesta:   21   -12718.4865   -12708.6973   -12708.7767  0.2861 -3.8784
siesta:   22   -12718.4816   -12710.6959   -12710.7586  0.2827 -3.8926
siesta:   23   -12718.4649   -12713.7764   -12713.8372  0.2662 -3.9064
siesta:   24   -12718.4264   -12715.9202   -12715.9825  0.2471 -3.9059
siesta:   25   -12718.3713   -12718.4181   -12718.4805  0.1874 -3.9127
siesta:   26   -12718.3358   -12718.6874   -12718.7511  0.0338 -3.9142
siesta:   27   -12718.3555   -12717.1293   -12717.2015  0.1479 -3.9190
siesta:   28   -12718.3356   -12716.8651   -12716.9288  0.0463 -3.9154
siesta:   29   -12718.3327   -12716.9557   -12717.0264  0.0332 -3.9148
siesta:   30   -12718.3320   -12716.9161   -12716.9888  0.0295 -3.9154
siesta:   31   -12718.3310   -12717.2865   -12717.3593  0.0190 -3.9144
siesta:   32   -12718.3338   -12717.6017   -12717.6748  0.0409 -3.9145
siesta:   33   -12718.3317   -12717.9841   -12718.0549  0.0063 -3.9134
siesta:   34   -12718.3320   -12718.2180   -12718.2902  0.0193 -3.9134
siesta:   35   -12718.3311   -12718.4745   -12718.5463  0.0049 -3.9132
siesta:   36   -12718.3308   -12718.5216   -12718.5943  0.0031 -3.9129
siesta:   37   -12718.3311   -12718.3696   -12718.4424  0.0043 -3.9128
siesta:   38   -12718.3308   -12718.3750   -12718.4475  0.0018 -3.9125
siesta:   39   -12718.3309   -12718.3423   -12718.4151  0.0017 -3.9122
siesta:   40   -12718.3309   -12718.3418   -12718.4145  0.0009 -3.9117
siesta:   41   -12718.3309   -12718.3561   -12718.4288  0.0004 -3.9118
siesta:   42   -12718.3309   -12718.3576   -12718.4304  0.0004 -3.9119
siesta:   43   -12718.3309   -12718.3485   -12718.4213  0.0003 -3.9119
siesta:   44   -12718.3309   -12718.3357   -12718.4085  0.0001 -3.9119

siesta: E_KS(eV) =           -12718.3375

siesta: E_KS - E_eggbox =    -12718.3375

siesta: Atomic forces (eV/Ang):
----------------------------------------
   Tot   -0.299432    0.429178    0.000000
----------------------------------------
   Max  774.919422
   Res  184.052961    sqrt( Sum f_i^2 / 3N )
----------------------------------------
   Max  774.919422    constrained

Stress-tensor-Voigt (kbar):     -642.96    -3302.09       -0.10       -5.00        0.00        0.00
(Free)E + p*V (eV/cell)   -11164.4869
Target enthalpy (eV/cell)   -12718.4103

siesta: Stress tensor (static) (eV/Ang**3):
        -0.401299   -0.003122    0.000000
        -0.003122   -2.060977    0.000000
         0.000000    0.000000   -0.000065

siesta: Pressure (static):       1315.04927733  kBar

siesta: Stress tensor (total) (eV/Ang**3):
        -0.401299   -0.003122    0.000000
        -0.003122   -2.060977    0.000000
         0.000000    0.000000   -0.000065

siesta: Pressure (total):       1315.04927733  kBar

siesta: Temp_ion =       0.000 K

* Maximum dynamic memory allocated =   199 MB
Computing bands...

siesta: Program's energy decomposition (eV):
siesta: Ebs     =     -5079.312507
siesta: Eions   =     21617.947954
siesta: Ena     =      4939.309959
siesta: Ekin    =     11253.974203
siesta: Enl     =     -1721.391527
siesta: DEna    =      -819.861409
siesta: DUscf   =       111.189551
siesta: DUext   =         0.000000
siesta: Exc     =     -4863.610363
siesta: eta*DQ  =         0.000000
siesta: Emadel  =         0.000000
siesta: Emeta   =         0.000000
siesta: Emolmec =         0.000000
siesta: Ekinion =         0.000000
siesta: Eharris =    -12718.330867
siesta: Etot    =    -12718.337541
siesta: FreeEng =    -12718.410303

siesta: Final energy (eV):
siesta:  Band Struct. =   -5079.312507
siesta:       Kinetic =   11253.974203
siesta:       Hartree =   36686.641308
siesta:    Ext. field =       0.000000
siesta:   Exch.-corr. =   -4863.610363
siesta:  Ion-electron =  -84171.003680
siesta:       Ion-ion =   28375.660991
siesta:       Ekinion =       0.000000
siesta:         Total =  -12718.337541

siesta: Atomic forces (eV/Ang):
siesta:      1    5.816755  114.343304    0.000000
siesta:      2  -26.595266 -748.326352    0.000000
siesta:      3   -2.357331  109.961054    0.000000
siesta:      4   16.600696 -664.847357    0.000000
siesta:      5    4.954799 -112.032071    0.000000
siesta:      6  -12.055298  650.744051    0.000000
siesta:      7  -35.904139   -3.643821    0.000000
siesta:      8    0.653734  774.919422    0.000000
siesta:      9  -29.493630   -2.333180    0.000000
siesta:     10   10.317749  687.439458    0.000000
siesta:     11    0.777078   -1.076789    0.000000
siesta:     12    0.309935    0.300605    0.000000
siesta:     13    2.049702    2.443987    0.000000
siesta:     14    0.920470   -1.690747    0.000000
siesta:     15    1.029218    0.833550    0.000000
siesta:     16   -1.037720   -1.011681    0.000000
siesta:     17    0.031469    0.284584    0.000000
siesta:     18    2.044176   -0.449846    0.000000
siesta:     19   -4.469713 -675.181133    0.000000
siesta:     20    1.269706  112.330472    0.000000
siesta:     21    0.589724  548.137650    0.000000
siesta:     22   -2.961508 -129.361665    0.000000
siesta:     23   27.979863    2.727451    0.000000
siesta:     24   33.447338 -557.014437    0.000000
siesta:     25    2.305933   -0.134795    0.000000
siesta:     26   -3.118639    2.224169    0.000000
siesta:     27    2.092984    2.216639    0.000000
siesta:     28   -1.705708   -0.140129    0.000000
siesta:     29  -25.297077    5.540449    0.000000
siesta:     30  -40.910403 -661.357695    0.000000
siesta:     31    8.793729  547.805735    0.000000
siesta:     32    3.012858 -120.935953    0.000000
siesta:     33   17.686708  550.121350    0.000000
siesta:     34   28.130582   -2.507321    0.000000
siesta:     35   -3.714825   -1.569486    0.000000
siesta:     36    1.822301    0.045290    0.000000
siesta:     37   -1.533044    0.087901    0.000000
siesta:     38    2.125084   -2.712804    0.000000
siesta:     39   -0.217607    7.810850    0.000000
siesta:     40   -0.114970   -7.534514    0.000000
siesta:     41  -11.685931  550.861088    0.000000
siesta:     42    0.779414 -127.254178    0.000000
siesta:     43   -1.351369  668.140014    0.000000
siesta:     44    8.653470  687.251295    0.000000
siesta:     45   26.728187   -3.618746    0.000000
siesta:     46   -1.885489    2.561400    0.000000
siesta:     47    0.526111   -0.078785    0.000000
siesta:     48   -0.322806    0.743888    0.000000
siesta:     49   -0.133731   -0.529804    0.000000
siesta:     50    0.004458    0.705117    0.000000
siesta:     51    0.295260   -0.176413    0.000000
siesta:     52   -0.257501   -0.257421    0.000000
siesta:     53    2.253783   -0.276506    0.000000
siesta:     54   -0.752498   -1.899928    0.000000
siesta:     55    0.948562    3.536670    0.000000
siesta:     56   -1.356184   -0.116572    0.000000
siesta:     57   -0.024022    0.051748    0.000000
siesta:     58   -0.746282    0.388455    0.000000
siesta:     59   -0.487970    1.335723    0.000000
siesta:     60   -1.737922    0.097914    0.000000
siesta:     61    0.452318    0.362601    0.000000
siesta:     62   -1.325743   -2.267493    0.000000
siesta:     63   -0.760819   -0.613812    0.000000
siesta:     64   -0.982886 -565.749474    0.000000
siesta:     65   -0.065295   -2.510438    0.000000
siesta:     66   22.169285    6.143872    0.000000
siesta:     67   26.859936 -558.545377    0.000000
siesta:     68  -22.967524    5.530375    0.000000
siesta:     69  -18.206233 -562.006159    0.000000
siesta:     70    0.539073   -1.469103    0.000000
siesta:     71   -0.785557  119.557924    0.000000
siesta:     72   -7.949242 -645.924888    0.000000
siesta: ----------------------------------------
siesta:    Tot   -0.299432    0.429178    0.000000

siesta: Stress tensor (static) (eV/Ang**3):
siesta:    -0.401299   -0.003122    0.000000
siesta:    -0.003122   -2.060977    0.000000
siesta:     0.000000    0.000000   -0.000065

siesta: Cell volume =       1893.226884 Ang**3

siesta: Pressure (static):
siesta:                Solid            Molecule  Units
siesta:           0.00893935          0.14643664  Ry/Bohr**3
siesta:           0.82078033         13.44531444  eV/Ang**3
siesta:        1315.04927733      21542.00146960  kBar
(Free)E+ p_basis*V_orbitals  =      -12690.531958
(Free)Eharris+ p_basis*V_orbitals  =      -12690.527088

siesta: Electric dipole (a.u.)  =    0.000000    0.000000    0.000000
siesta: Electric dipole (Debye) =    0.000000    0.000000    0.000000

* Maximum dynamic memory allocated : Node    0 =   199 MB
* Maximum dynamic memory allocated : Node    1 =    72 MB
* Maximum dynamic memory allocated : Node    2 =    74 MB
* Maximum dynamic memory allocated : Node    3 =   191 MB
* Maximum dynamic memory allocated : Node    4 =   189 MB
* Maximum dynamic memory allocated : Node    5 =    71 MB
* Maximum dynamic memory allocated : Node    6 =    72 MB
* Maximum dynamic memory allocated : Node    7 =   173 MB

* Maximum memory occured during matrixMtoO                    

timer: CPU execution times:
timer:  Routine       Calls   Time/call    Tot.time        %
timer:  siesta            1  180151.000  180151.000   100.00
timer:  Setup             1       3.049       3.049     0.00
timer:  bands             3     268.647     805.940     0.45
timer:  writewave         1       0.021       0.021     0.00
timer:  KSV_init          1       0.001       0.001     0.00
timer:  IterMD            1  179336.154  179336.154    99.55
timer:  hsparse           1       0.233       0.233     0.00
timer:  overlap           1       7.703       7.703     0.00
timer:  IterSCF          44    4072.099  179172.361    99.46
timer:  kinefsm           2       3.957       7.914     0.00
timer:  nlefsm            2      18.464      36.928     0.02
timer:  DHSCF            45      84.946    3822.555     2.12
timer:  DHSCF1            1       0.764       0.764     0.00
timer:  DHSCF2            1      32.865      32.865     0.02
timer:  REORD           362       0.010       3.617     0.00
timer:  POISON           46       2.240     103.029     0.06
timer:  DHSCF3           45      83.489    3757.003     2.09
timer:  rhoofd           45      16.674     750.336     0.42
timer:  cellXC           45       3.505     157.737     0.09
timer:  vmat             45      40.038    1801.691     1.00
timer:  MolMec            2       0.000       0.000     0.00
timer:  diagon           44    3985.877  175378.603    97.35
timer:  c-eigval      10285       6.663   68534.097    38.04
timer:  c-buildHS     10285       0.112    1148.091     0.64
timer:  cdiag         20449       6.871  140502.955    77.99
timer:  cdiag1        20449       0.425    8699.742     4.83
timer:  cdiag2        20449       1.909   39036.839    21.67
timer:  cdiag3        20449       3.941   80593.058    44.74
timer:  cdiag4        20449       0.204    4171.193     2.32
timer:  c-eigvec      10164       7.247   73663.035    40.89
timer:  c-buildD      10164       3.338   33927.948    18.83
timer:  DHSCF4            1      29.553      29.553     0.02
timer:  dfscf             1      27.773      27.773     0.02
timer:  overfsm           1       0.398       0.398     0.00
timer:  optical           1       5.107       5.107     0.00
  

elaps: ELAPSED times:
elaps:  Routine       Calls   Time/call    Tot.time        %
elaps:  siesta            1   22543.386   22543.386   100.00
elaps:  Setup             1       0.380       0.380     0.00
elaps:  bands             3      33.632     100.896     0.45
elaps:  writewave         1       0.002       0.002     0.00
elaps:  KSV_init          1       0.000       0.000     0.00
elaps:  IterMD            1   22441.435   22441.435    99.55
elaps:  hsparse           1       0.029       0.029     0.00
elaps:  overlap           1       0.964       0.964     0.00
elaps:  IterSCF          44     509.567   22420.952    99.46
elaps:  kinefsm           2       0.498       0.997     0.00
elaps:  nlefsm            2       2.340       4.679     0.02
elaps:  DHSCF            45      10.714     482.150     2.14
elaps:  DHSCF1            1       0.103       0.103     0.00
elaps:  DHSCF2            1       4.108       4.108     0.02
elaps:  REORD           362       0.001       0.491     0.00
elaps:  POISON           46       0.279      12.857     0.06
elaps:  DHSCF3           45      10.445     470.022     2.08
elaps:  rhoofd           45       4.567     205.533     0.91
elaps:  cellXC           45       0.438      19.705     0.09
elaps:  vmat             45       5.009     225.386     1.00
elaps:  MolMec            2       0.000       0.000     0.00
elaps:  diagon           44     498.775   21946.081    97.35
elaps:  c-eigval      10285       0.834    8574.928    38.04
elaps:  c-buildHS     10285       0.015     157.400     0.70
elaps:  cdiag         20449       0.862   17624.225    78.18
elaps:  cdiag1        20449       0.053    1080.141     4.79
elaps:  cdiag2        20449       0.239    4884.586    21.67
elaps:  cdiag3        20449       0.494   10097.973    44.79
elaps:  cdiag4        20449       0.026     527.968     2.34
elaps:  c-eigvec      10164       0.915    9297.427    41.24
elaps:  c-buildD      10164       0.410    4163.496    18.47
elaps:  DHSCF4            1       7.593       7.593     0.03
elaps:  dfscf             1       7.218       7.218     0.03
elaps:  overfsm           1       0.051       0.051     0.00
elaps:  optical           1       0.000       0.000     0.00
  
>> End of run:  28-APR-2016  19:24:50
