Siesta Version:                                        siesta-3.2-pl-3
Architecture  : x86_64-unknown-linux-gnu--unknown
Compiler flags: mpiifort -g -O2 -fPIC -xSSE4.1 -fp-model source -shared-intel 
PARALLEL version

* Running on    8 nodes in parallel
>> Start of run:  15-APR-2016   4:32:34

                           ***********************       
                           *  WELCOME TO SIESTA  *       
                           ***********************       

reinit: Reading from standard input
************************** Dump of input data file ****************************
#(1) General system descriptors
SystemName            GRP_doping    # Descriptive name of the system
SystemLabel           GRP_doping    # Short name for naming files
%include STRUCT.fdf
%include KPT.fdf
%include BASIS.fdf
#%include TS.fdf # for transiesta calculation
#(4) DFT, Grid, SCF
XC.functional         GGA           # LDA or GGA (default = LDA)
XC.authors            PBE           # CA (Ceperley-Aldr) = PZ
                                    #    (Perdew-Zunger) - LDA - Default
                                    # PW92 (Perdew-Wang-92) - LDA
                                    # PBE (Perdew-Burke-Ernzerhof) - GGA
MeshCutoff            200.000000    Ry      # Default: 50.0 Ry ~ 0.444 Bohr
                                    #         100.0 Ry ~ 0.314 Bohr
MaxSCFIterations      500           # Default: 50
DM.MixingWeight       0.05          # Default: 0.25
DM.NumberPulay        10            # Default: 0
DM.PulayOnFile        F             # SystemLabel.P1, SystemLabel.P2
DM.Tolerance          1.d-4         # Default: 1.d-4
DM.UseSaveDM          .true.        # because of the bug
SCFMustConverge       .true.
NeglNonOverlapInt     F             # Default: F
#(5) Eigenvalue problem: order-N or diagonalization
SolutionMethod        Diagon        # or Transiesta
ElectronicTemperature 300.0 K       # Default: 300.0 K
#(6) Molecular dynamics and relaxations
#MD.TypeOfRun          CG            # Type of dynamics:
#MD.VariableCell       F
#MD.NumCGsteps         0           # 0 for single-point / 100 for gopt
#MD.MaxCGDispl         0.2 Bohr      # Default: 0.2 Bohr
#MD.MaxForceTol        0.02 eV/Ang   # Default: 0.04 eV/Ang
#MD.MaxStressTol       1.0 GPa       # Default: 1.0 GPa
# Geometry Constraints
#%block GeometryConstraints
#	position from 1 to 44
#%endblock GeometryConstraints
BandLinesScale   pi/a
%block BandLines
 1   0.00000000  0.00000000  0.00000000
50   0.00000000  0.07809418  0.00000000
50   0.04509075  0.07809242  0.00000000
20   0.00000000  0.00000000  0.00000000
%endblock BandLines
************************** End of input data file *****************************

reinit: -----------------------------------------------------------------------
reinit: System Name: GRP_doping
reinit: -----------------------------------------------------------------------
reinit: System Label: GRP_doping                                                  
reinit: -----------------------------------------------------------------------

initatom: Reading input for the pseudopotentials and atomic orbitals ----------
 Species number:            1  Label: B Atomic number:           5
 Species number:            2  Label: C Atomic number:           6
Ground state valence configuration:   2s02  2p01
Reading pseudopotential information in formatted form from B.psf

Valence configuration for pseudopotential generation:
2s( 2.00) rc: 1.74
2p( 1.00) rc: 1.74
3d( 0.00) rc: 1.74
4f( 0.00) rc: 1.74
Ground state valence configuration:   2s02  2p02
Reading pseudopotential information in formatted form from C.psf

Valence configuration for pseudopotential generation:
2s( 2.00) rc: 1.54
2p( 2.00) rc: 1.54
3d( 0.00) rc: 1.54
4f( 0.00) rc: 1.54
For B, standard SIESTA heuristics set lmxkb to 3
 (one more than the basis l, including polarization orbitals).
Use PS.lmax or PS.KBprojectors blocks to override.
For C, standard SIESTA heuristics set lmxkb to 3
 (one more than the basis l, including polarization orbitals).
Use PS.lmax or PS.KBprojectors blocks to override.

<basis_specs>
===============================================================================
B                    Z=   5    Mass=  10.810        Charge= 0.17977+309
Lmxo=1 Lmxkb= 3    BasisType=split      Semic=F
L=0  Nsemic=0  Cnfigmx=2
          n=1  nzeta=2  polorb=0
            splnorm:   0.15000    
               vcte:    0.0000    
               rinn:    0.0000    
                rcs:    0.0000      0.0000    
            lambdas:    1.0000      1.0000    
L=1  Nsemic=0  Cnfigmx=2
          n=1  nzeta=2  polorb=1
            splnorm:   0.15000    
               vcte:    0.0000    
               rinn:    0.0000    
                rcs:    0.0000      0.0000    
            lambdas:    1.0000      1.0000    
-------------------------------------------------------------------------------
L=0  Nkbl=1  erefs: 0.17977+309
L=1  Nkbl=1  erefs: 0.17977+309
L=2  Nkbl=1  erefs: 0.17977+309
L=3  Nkbl=1  erefs: 0.17977+309
===============================================================================
</basis_specs>

atom: Called for B                     (Z =   5)

read_vps: Pseudopotential generation method:
read_vps: ATM3      Troullier-Martins                       
Total valence charge:    3.00000

read_vps: Pseudopotential includes a core correction:
read_vps: Pseudo-core for xc-correction

xc_check: Exchange-correlation functional:
xc_check: GGA Perdew, Burke & Ernzerhof 1996
V l=0 = -2*Zval/r beyond r=  1.7165
V l=1 = -2*Zval/r beyond r=  1.7165
V l=2 = -2*Zval/r beyond r=  1.7165
V l=3 = -2*Zval/r beyond r=  1.6951
All V_l potentials equal beyond r=  1.7165
This should be close to max(r_c) in ps generation
All pots = -2*Zval/r beyond r=  1.7165

VLOCAL1: 99.0% of the norm of Vloc inside     14.733 Ry
VLOCAL1: 99.9% of the norm of Vloc inside     33.577 Ry
atom: Maximum radius for 4*pi*r*r*local-pseudopot. charge    2.04484
atom: Maximum radius for r*vlocal+2*Zval:    1.75994
GHOST: No ghost state for L =  0
GHOST: No ghost state for L =  1
GHOST: No ghost state for L =  2
GHOST: No ghost state for L =  3

KBgen: Kleinman-Bylander projectors: 
   l= 0   rc=  1.897051   el= -0.693730   Ekb=  4.595746   kbcos=  0.286105
   l= 1   rc=  1.920920   el= -0.265236   Ekb= -2.350715   kbcos= -0.315747
   l= 2   rc=  2.044840   el=  0.002055   Ekb= -0.690767   kbcos= -0.013822
   l= 3   rc=  2.149707   el=  0.003188   Ekb= -0.315358   kbcos= -0.002055

KBgen: Total number of  Kleinman-Bylander projectors:   16
atom: -------------------------------------------------------------------------

atom: SANKEY-TYPE ORBITALS:
atom: Selected multiple-zeta basis: split     

SPLIT: Orbitals with angular momentum L= 0

SPLIT: Basis orbitals for state 2s

SPLIT: PAO cut-off radius determined from an
SPLIT: energy shift=  0.007350 Ry

   izeta = 1
                 lambda =    1.000000
                     rc =    5.422032
                 energy =   -0.686029
                kinetic =    0.576707
    potential(screened) =   -1.262736
       potential(ionic) =   -3.271094

   izeta = 2
                 rmatch =    4.222573
              splitnorm =    0.150000
                 energy =   -0.602132
                kinetic =    0.858975
    potential(screened) =   -1.461107
       potential(ionic) =   -3.582536

SPLIT: Orbitals with angular momentum L= 1

SPLIT: Basis orbitals for state 2p

SPLIT: PAO cut-off radius determined from an
SPLIT: energy shift=  0.007350 Ry

   izeta = 1
                 lambda =    1.000000
                     rc =    6.790259
                 energy =   -0.258578
                kinetic =    1.481412
    potential(screened) =   -1.739989
       potential(ionic) =   -3.657461

   izeta = 2
                 rmatch =    4.608740
              splitnorm =    0.150000
                 energy =   -0.173757
                kinetic =    2.186690
    potential(screened) =   -2.360447
       potential(ionic) =   -4.464260

POLgen: Perturbative polarization orbital with L=  2

POLgen: Polarization orbital for state 2p

   izeta = 1
                     rc =    6.790259
                 energy =    0.684082
                kinetic =    1.471481
    potential(screened) =   -0.787399
       potential(ionic) =   -2.406985
atom: Total number of Sankey-type orbitals: 13

atm_pop: Valence configuration (for local Pseudopot. screening):
 2s( 2.00)                                                            
 2p( 1.00)                                                            
Vna: chval, zval:    3.00000   3.00000

Vna:  Cut-off radius for the neutral-atom potential:   6.790259
comcore: Pseudo-core radius Rcore=  2.122997

atom: _________________________________________________________________________

<basis_specs>
===============================================================================
C                    Z=   6    Mass=  12.010        Charge= 0.17977+309
Lmxo=1 Lmxkb= 3    BasisType=split      Semic=F
L=0  Nsemic=0  Cnfigmx=2
          n=1  nzeta=2  polorb=0
            splnorm:   0.15000    
               vcte:    0.0000    
               rinn:    0.0000    
                rcs:    0.0000      0.0000    
            lambdas:    1.0000      1.0000    
L=1  Nsemic=0  Cnfigmx=2
          n=1  nzeta=2  polorb=1
            splnorm:   0.15000    
               vcte:    0.0000    
               rinn:    0.0000    
                rcs:    0.0000      0.0000    
            lambdas:    1.0000      1.0000    
-------------------------------------------------------------------------------
L=0  Nkbl=1  erefs: 0.17977+309
L=1  Nkbl=1  erefs: 0.17977+309
L=2  Nkbl=1  erefs: 0.17977+309
L=3  Nkbl=1  erefs: 0.17977+309
===============================================================================
</basis_specs>

atom: Called for C                     (Z =   6)

read_vps: Pseudopotential generation method:
read_vps: ATM3      Troullier-Martins                       
Total valence charge:    4.00000

read_vps: Pseudopotential includes a core correction:
read_vps: Pseudo-core for xc-correction

xc_check: Exchange-correlation functional:
xc_check: GGA Perdew, Burke & Ernzerhof 1996
V l=0 = -2*Zval/r beyond r=  1.5227
V l=1 = -2*Zval/r beyond r=  1.5227
V l=2 = -2*Zval/r beyond r=  1.5227
V l=3 = -2*Zval/r beyond r=  1.5038
All V_l potentials equal beyond r=  1.5227
This should be close to max(r_c) in ps generation
All pots = -2*Zval/r beyond r=  1.5227

VLOCAL1: 99.0% of the norm of Vloc inside     18.722 Ry
VLOCAL1: 99.9% of the norm of Vloc inside     42.668 Ry
atom: Maximum radius for 4*pi*r*r*local-pseudopot. charge    1.83678
atom: Maximum radius for r*vlocal+2*Zval:    1.58088
GHOST: No ghost state for L =  0
GHOST: No ghost state for L =  1
GHOST: No ghost state for L =  2
GHOST: No ghost state for L =  3

KBgen: Kleinman-Bylander projectors: 
   l= 0   rc=  1.704034   el= -1.009801   Ekb=  5.335044   kbcos=  0.316824
   l= 1   rc=  1.704034   el= -0.388707   Ekb= -3.785862   kbcos= -0.366464
   l= 2   rc=  1.791422   el=  0.001971   Ekb= -0.970471   kbcos= -0.009212
   l= 3   rc=  1.859892   el=  0.003065   Ekb= -0.399525   kbcos= -0.001223

KBgen: Total number of  Kleinman-Bylander projectors:   16
atom: -------------------------------------------------------------------------

atom: SANKEY-TYPE ORBITALS:
atom: Selected multiple-zeta basis: split     

SPLIT: Orbitals with angular momentum L= 0

SPLIT: Basis orbitals for state 2s

SPLIT: PAO cut-off radius determined from an
SPLIT: energy shift=  0.007350 Ry

   izeta = 1
                 lambda =    1.000000
                     rc =    4.632753
                 energy =   -1.002270
                kinetic =    0.855760
    potential(screened) =   -1.858031
       potential(ionic) =   -5.417575

   izeta = 2
                 rmatch =    3.431921
              splitnorm =    0.150000
                 energy =   -0.867111
                kinetic =    1.300804
    potential(screened) =   -2.167915
       potential(ionic) =   -5.962684

SPLIT: Orbitals with angular momentum L= 1

SPLIT: Basis orbitals for state 2p

SPLIT: PAO cut-off radius determined from an
SPLIT: energy shift=  0.007350 Ry

   izeta = 1
                 lambda =    1.000000
                     rc =    5.658549
                 energy =   -0.381140
                kinetic =    2.399701
    potential(screened) =   -2.780841
       potential(ionic) =   -6.206085

   izeta = 2
                 rmatch =    3.653288
              splitnorm =    0.150000
                 energy =   -0.249149
                kinetic =    3.542762
    potential(screened) =   -3.791911
       potential(ionic) =   -7.581078

POLgen: Perturbative polarization orbital with L=  2

POLgen: Polarization orbital for state 2p

   izeta = 1
                     rc =    5.658549
                 energy =    1.109913
                kinetic =    2.304789
    potential(screened) =   -1.194876
       potential(ionic) =   -4.013592
atom: Total number of Sankey-type orbitals: 13

atm_pop: Valence configuration (for local Pseudopot. screening):
 2s( 2.00)                                                            
 2p( 2.00)                                                            
Vna: chval, zval:    4.00000   4.00000

Vna:  Cut-off radius for the neutral-atom potential:   5.658549
comcore: Pseudo-core radius Rcore=  1.791422

atom: _________________________________________________________________________

prinput: Basis input ----------------------------------------------------------

PAO.BasisType split     

%block ChemicalSpeciesLabel
    1    5 B                       # Species index, atomic number, species label
    2    6 C                       # Species index, atomic number, species label
%endblock ChemicalSpeciesLabel

%block PAO.Basis                 # Define Basis set
B                     2                    # Species label, number of l-shells
 n=2   0   2                         # n, l, Nzeta 
   5.422      4.223   
   1.000      1.000   
 n=2   1   2 P   1                   # n, l, Nzeta, Polarization, NzetaPol
   6.790      4.609   
   1.000      1.000   
C                     2                    # Species label, number of l-shells
 n=2   0   2                         # n, l, Nzeta 
   4.633      3.432   
   1.000      1.000   
 n=2   1   2 P   1                   # n, l, Nzeta, Polarization, NzetaPol
   5.659      3.653   
   1.000      1.000   
%endblock PAO.Basis

prinput: ----------------------------------------------------------------------

coor:   Atomic-coordinates input format  =     Fractional

siesta: Atomic coordinates (Bohr) and species
siesta:     -0.02582  21.41544   0.00000  1        1
siesta:      2.30256  22.75985   0.00000  1        2
siesta:      2.30256  25.44831   0.00000  1        3
siesta:     -2.35420  22.75985   0.00000  1        4
siesta:     -2.35420  25.44831   0.00000  1        5
siesta:     -0.02582  26.79272   0.00000  1        6
siesta:     -7.01096  33.51406   0.00000  1        7
siesta:     -0.02582   2.59549   0.00000  2        8
siesta:     -0.02582   5.28395   0.00000  2        9
siesta:     -2.35420  38.89134   0.00000  2       10
siesta:     -2.35420  41.57980   0.00000  2       11
siesta:      2.30256  38.89134   0.00000  2       12
siesta:      2.30256  41.57980   0.00000  2       13
siesta:      4.63094  34.85847   0.00000  2       14
siesta:      4.63094  37.54693   0.00000  2       15
siesta:      6.95932  30.82560   0.00000  2       16
siesta:      6.95932  33.51406   0.00000  2       17
siesta:      9.28770  26.79272   0.00000  2       18
siesta:      9.28770  29.48119   0.00000  2       19
siesta:     -4.68258  34.85847   0.00000  2       20
siesta:     -4.68258  37.54693   0.00000  2       21
siesta:      2.30256   6.62836   0.00000  2       22
siesta:      2.30256   9.31683   0.00000  2       23
siesta:      4.63094  10.66124   0.00000  2       24
siesta:      4.63094  13.34970   0.00000  2       25
siesta:      6.95932  14.69411   0.00000  2       26
siesta:      6.95932  17.38257   0.00000  2       27
siesta:      9.28770  18.72698   0.00000  2       28
siesta:      9.28770  21.41544   0.00000  2       29
siesta:     11.61608  22.75985   0.00000  2       30
siesta:     11.61608  25.44831   0.00000  2       31
siesta:     -2.35420   6.62836   0.00000  2       32
siesta:     -2.35420   9.31683   0.00000  2       33
siesta:     -0.02582  10.66124   0.00000  2       34
siesta:     -0.02582  13.34970   0.00000  2       35
siesta:      2.30256  14.69411   0.00000  2       36
siesta:      2.30256  17.38257   0.00000  2       37
siesta:      4.63094  18.72698   0.00000  2       38
siesta:      4.63094  21.41544   0.00000  2       39
siesta:      6.95932  22.75985   0.00000  2       40
siesta:      6.95932  25.44831   0.00000  2       41
siesta:     -4.68258  10.66124   0.00000  2       42
siesta:     -4.68258  13.34970   0.00000  2       43
siesta:     -2.35420  14.69411   0.00000  2       44
siesta:     -2.35420  17.38257   0.00000  2       45
siesta:     -0.02582  18.72698   0.00000  2       46
siesta:     -7.01096  14.69411   0.00000  2       47
siesta:     -7.01096  17.38257   0.00000  2       48
siesta:     -4.68258  18.72698   0.00000  2       49
siesta:     -4.68258  21.41544   0.00000  2       50
siesta:     -9.33934  18.72698   0.00000  2       51
siesta:     -9.33934  21.41544   0.00000  2       52
siesta:     -7.01096  22.75985   0.00000  2       53
siesta:     -7.01096  25.44831   0.00000  2       54
siesta:    -11.66772  22.75985   0.00000  2       55
siesta:    -11.66772  25.44831   0.00000  2       56
siesta:     -9.33934  26.79272   0.00000  2       57
siesta:     -9.33934  29.48119   0.00000  2       58
siesta:      4.63094  26.79272   0.00000  2       59
siesta:      4.63094  29.48119   0.00000  2       60
siesta:     -0.02582  29.48119   0.00000  2       61
siesta:     -4.68258  26.79272   0.00000  2       62
siesta:     -4.68258  29.48119   0.00000  2       63
siesta:      2.30256  30.82560   0.00000  2       64
siesta:      2.30256  33.51406   0.00000  2       65
siesta:     -2.35420  30.82560   0.00000  2       66
siesta:     -2.35420  33.51406   0.00000  2       67
siesta:     -7.01096  30.82560   0.00000  2       68
siesta:     -0.02582  34.85847   0.00000  2       69
siesta:     -0.02582  37.54693   0.00000  2       70
siesta:     -0.02582  42.92421   0.00000  2       71
siesta:     -0.02582  45.61267   0.00000  2       72

siesta: System type = slab      

initatomlists: Number of atoms, orbitals, and projectors:     72   936  1152

siesta: ******************** Simulation parameters ****************************
siesta:
siesta: The following are some of the parameters of the simulation.
siesta: A complete list of the parameters used, including default values,
siesta: can be found in file out.fdf
siesta:
redata: Non-Collinear-spin run           =     F
redata: SpinPolarized (Up/Down) run      =     F
redata: Number of spin components        =     1
redata: Long output                      =     F
redata: Number of Atomic Species         =        2
redata: Charge density info will appear in .RHO file
redata: Write Mulliken Pop.              =     NO
redata: Mesh Cutoff                      =   200.0000  Ry
redata: Net charge of the system         =     0.0000 |e|
redata: Max. number of SCF Iter          =      500
redata: SCF convergence failure will abort job
redata: Performing Pulay mixing using    =    10 iterations
redata: Mix DM in first SCF step ?       =     F
redata: Write Pulay info on disk?        =     F
redata: Discard 1st Pulay DM after  kick =     F
redata: New DM Mixing Weight             =     0.0500
redata: New DM Occupancy tolerance       = 0.000000000001
redata: No kicks to SCF
redata: DM Mixing Weight for Kicks       =     0.5000
redata: DM Tolerance for SCF             =     0.000100
redata: Require Energy convergence for SCF =     F
redata: DM Energy tolerance for SCF      =     0.000100 eV
redata: Require Harris convergence for SCF =     F
redata: DM Harris energy tolerance for SCF =     0.000100 eV
redata: Using Saved Data (generic)   =     F
redata: Use continuation files for DM    =     T
redata: Neglect nonoverlap interactions  =     F
redata: Method of Calculation            =     Diagonalization
redata: Divide and Conquer               =     T
redata: Electronic Temperature           =     0.0019  Ry
redata: Fix the spin of the system       =     F
redata: Dynamics option                  =     Verlet MD run
redata: Initial MD time step             =        1
redata:   Final MD time step             =        1
redata: Length of MD time step           =     1.0000  fs
redata: Initial Temperature of MD run    =     0.0000  K
redata: Perform a MD quench              =     F
redata: ***********************************************************************
Total number of electrons:   281.000000
Total ionic charge:   281.000000

* ProcessorY, Blocksize:    2  24

k-point displ. along   1 input, could be:     0.50    0.00
k-point displ. along   2 input, could be:     0.50    0.00
 Kpoints in:          231 . Kpoints trimmed:          231

siesta: k-grid: Number of k-points =   231
siesta: k-grid: Cutoff (effective) =     5.000 Ang
siesta: k-grid: Supercell and displacements
siesta: k-grid:   21   0   0      0.500
siesta: k-grid:    0  21   0      0.500
siesta: k-grid:    0   0   1      0.000
Naive supercell factors:     2    2    2

superc: Internal auxiliary supercell:     2 x     2 x     2  =       8
superc: Number of atoms, orbitals, and projectors:    576   7488   9216

* Maximum dynamic memory allocated =     4 MB

siesta:                 ==============================
                            Begin MD step =      1
                        ==============================

superc: Internal auxiliary supercell:     2 x     2 x     2  =       8
superc: Number of atoms, orbitals, and projectors:    576   7488   9216

outcell: Unit cell vectors (Ang):
       12.804619    7.392750    0.000000
        0.000000   14.785500    0.000000
        0.000000    0.000000   10.000000

outcell: Cell vector modules (Ang)   :   14.785500   14.785500   10.000000
outcell: Cell angles (23,13,12) (deg):     90.0000     90.0000     60.0000
outcell: Cell volume (Ang**3)        :   1893.2269
New_DM. Step:     1
Initializing Density Matrix...

InitMesh: MESH =   120 x   120 x    90 =     1296000
InitMesh: Mesh cutoff (required, used) =   200.000   223.865 Ry

* Maximum dynamic memory allocated =   206 MB

stepf: Fermi-Dirac step function

siesta: Program's energy decomposition (eV):
siesta: Ebs     =     -5773.781207
siesta: Eions   =     17506.614093
siesta: Ena     =      4552.997437
siesta: Ekin    =      6009.009694
siesta: Enl     =       685.243703
siesta: DEna    =        -0.000013
siesta: DUscf   =         0.000000
siesta: DUext   =         0.000000
siesta: Exc     =     -4182.748643
siesta: eta*DQ  =         0.000000
siesta: Emadel  =         0.000000
siesta: Emeta   =         0.000000
siesta: Emolmec =         0.000000
siesta: Ekinion =         0.000000
siesta: Eharris =    -10119.182905
siesta: Etot    =    -10442.111915
siesta: FreeEng =    -10442.111915

siesta: iscf   Eharris(eV)      E_KS(eV)   FreeEng(eV)   dDmax  Ef(eV)
siesta:    1   -10119.1829   -10442.1119   -10442.1119  6.3970 -8.0627
timer: Routine,Calls,Time,% = IterSCF        1    3472.254  99.69
elaps: Routine,Calls,Wall,% = IterSCF        1     434.870  99.69
siesta:    2   -14217.4743    -9470.7740    -9470.8879 15.2757 -2.3943
siesta:    3   -10063.3867   -10275.0024   -10275.0398  3.2850 -6.7368
siesta:    4   -10042.2473   -10110.5848   -10110.6204  1.0968 -5.0266
siesta:    5   -10001.5560   -10084.3098   -10084.3733  0.8859 -5.0979
siesta:    6    -9980.0698   -10034.9829   -10034.9930  0.7359 -5.0025
siesta:    7    -9977.5548   -10009.8497   -10009.8569  0.6532 -5.0041
siesta:    8    -9973.9151   -10003.5748   -10003.5854  0.6276 -4.9097
siesta:    9    -9972.8173    -9998.1695    -9998.1855  0.5879 -4.9156
siesta:   10    -9975.3260    -9965.5303    -9965.5573  0.4881 -4.7453
siesta:   11    -9973.0898    -9959.0807    -9959.1400  0.3392 -4.7436
siesta:   12    -9971.1155    -9954.6956    -9954.7655  0.2283 -4.7023
siesta:   13    -9970.5761    -9946.7097    -9946.7628  0.1563 -4.6598
siesta:   14    -9970.0777    -9946.5826    -9946.6307  0.1453 -4.6668
siesta:   15    -9969.8626    -9942.8539    -9942.9240  0.1312 -4.6396
siesta:   16    -9969.5277    -9945.4789    -9945.5202  0.1063 -4.6498
siesta:   17    -9968.9381    -9949.3002    -9949.3684  0.1024 -4.6779
siesta:   18    -9968.6909    -9954.5419    -9954.6131  0.0744 -4.6880
siesta:   19    -9968.6359    -9956.4885    -9956.5562  0.0758 -4.6864
siesta:   20    -9968.6132    -9958.3757    -9958.4442  0.0684 -4.6898
siesta:   21    -9968.5972    -9961.5263    -9961.5970  0.0465 -4.7063
siesta:   22    -9968.5808    -9964.6426    -9964.7142  0.0343 -4.7277
siesta:   23    -9968.5735    -9964.9855    -9965.0568  0.0272 -4.7266
siesta:   24    -9968.5666    -9966.8580    -9966.9273  0.0205 -4.7359
siesta:   25    -9968.5636    -9968.0423    -9968.1122  0.0153 -4.7326
siesta:   26    -9968.5630    -9968.2738    -9968.3439  0.0112 -4.7294
siesta:   27    -9968.5613    -9968.4238    -9968.4933  0.0055 -4.7281
siesta:   28    -9968.5611    -9968.4310    -9968.5009  0.0046 -4.7272
siesta:   29    -9968.5609    -9968.4648    -9968.5348  0.0032 -4.7264
siesta:   30    -9968.5609    -9968.4955    -9968.5655  0.0018 -4.7259
siesta:   31    -9968.5609    -9968.5155    -9968.5853  0.0017 -4.7259
siesta:   32    -9968.5608    -9968.5388    -9968.6086  0.0015 -4.7259
siesta:   33    -9968.5608    -9968.5477    -9968.6175  0.0012 -4.7260
siesta:   34    -9968.5608    -9968.5679    -9968.6378  0.0006 -4.7261
siesta:   35    -9968.5608    -9968.5776    -9968.6474  0.0003 -4.7262
siesta:   36    -9968.5608    -9968.5727    -9968.6425  0.0002 -4.7262
siesta:   37    -9968.5608    -9968.5535    -9968.6233  0.0001 -4.7262
siesta:   38    -9968.5608    -9968.5475    -9968.6174  0.0001 -4.7262
siesta:   39    -9968.5608    -9968.5459    -9968.6157  0.0001 -4.7262

siesta: E_KS(eV) =            -9968.5461

siesta: E_KS - E_eggbox =     -9968.5461

siesta: Atomic forces (eV/Ang):
----------------------------------------
   Tot   -0.212500   -0.096516    0.000000
----------------------------------------
   Max  562.646724
   Res  161.342485    sqrt( Sum f_i^2 / 3N )
----------------------------------------
   Max  562.646724    constrained

Stress-tensor-Voigt (kbar):     -763.59    -2883.01       -0.37       -3.33        0.00        0.00
(Free)E + p*V (eV/cell)    -8532.1368
Target enthalpy (eV/cell)    -9968.6160

siesta: Stress tensor (static) (eV/Ang**3):
        -0.476591   -0.002079    0.000000
        -0.002079   -1.799416    0.000000
         0.000000    0.000000   -0.000232

siesta: Pressure (static):       1215.65892277  kBar

siesta: Stress tensor (total) (eV/Ang**3):
        -0.476591   -0.002079    0.000000
        -0.002079   -1.799416    0.000000
         0.000000    0.000000   -0.000232

siesta: Pressure (total):       1215.65892277  kBar

siesta: Temp_ion =       0.000 K

* Maximum dynamic memory allocated =   223 MB
Computing bands...

siesta: Program's energy decomposition (eV):
siesta: Ebs     =     -4427.925767
siesta: Eions   =     17506.614093
siesta: Ena     =      4552.997437
siesta: Ekin    =      8986.924110
siesta: Enl     =      -950.493610
siesta: DEna    =      -800.192166
siesta: DUscf   =       106.082236
siesta: DUext   =         0.000000
siesta: Exc     =     -4357.250022
siesta: eta*DQ  =         0.000000
siesta: Emadel  =         0.000000
siesta: Emeta   =         0.000000
siesta: Emolmec =         0.000000
siesta: Ekinion =         0.000000
siesta: Eharris =     -9968.560821
siesta: Etot    =     -9968.546108
siesta: FreeEng =     -9968.615952

siesta: Final energy (eV):
siesta:  Band Struct. =   -4427.925767
siesta:       Kinetic =    8986.924110
siesta:       Hartree =   29553.620110
siesta:    Ext. field =       0.000000
siesta:   Exch.-corr. =   -4357.250022
siesta:  Ion-electron =  -67757.676285
siesta:       Ion-ion =   23605.835979
siesta:       Ekinion =       0.000000
siesta:         Total =   -9968.546108

siesta: Atomic forces (eV/Ang):
siesta:      1    0.018405   -4.355571    0.000000
siesta:      2    3.484643   -2.841047    0.000000
siesta:      3    3.683376    2.756976    0.000000
siesta:      4   -3.681618   -2.793864    0.000000
siesta:      5   -3.500547    2.953768    0.000000
siesta:      6    0.009405    4.349040    0.000000
siesta:      7    0.303153    2.391527    0.000000
siesta:      8   -0.163121  550.906052    0.000000
siesta:      9    0.152066 -127.988675    0.000000
siesta:     10    1.897940  126.311461    0.000000
siesta:     11  -15.354766 -548.373036    0.000000
siesta:     12   -1.670796  126.670177    0.000000
siesta:     13   15.726166 -548.476871    0.000000
siesta:     14   26.976682    5.476236    0.000000
siesta:     15   33.346592 -549.070611    0.000000
siesta:     16    2.225472    0.262830    0.000000
siesta:     17   -2.498079    2.048803    0.000000
siesta:     18    2.563572    1.625855    0.000000
siesta:     19   -1.327094    0.645151    0.000000
siesta:     20  -23.983343    8.109036    0.000000
siesta:     21  -32.987438 -548.950398    0.000000
siesta:     22   14.544800  548.310663    0.000000
siesta:     23   -1.489196 -126.270681    0.000000
siesta:     24   33.708857  549.000534    0.000000
siesta:     25   26.848592   -5.891671    0.000000
siesta:     26   -2.561123   -1.984457    0.000000
siesta:     27    2.388219   -0.428472    0.000000
siesta:     28   -1.228527   -0.231259    0.000000
siesta:     29    1.935801   -1.612129    0.000000
siesta:     30    0.764399    5.838786    0.000000
siesta:     31   -0.286929   -6.272167    0.000000
siesta:     32  -16.205020  547.892798    0.000000
siesta:     33    1.654518 -126.082498    0.000000
siesta:     34   -0.169875  542.831583    0.000000
siesta:     35    0.140800 -125.736785    0.000000
siesta:     36   22.180522  557.530024    0.000000
siesta:     37   21.388070   -5.482641    0.000000
siesta:     38   -0.699626    2.297336    0.000000
siesta:     39    2.645396   -1.804496    0.000000
siesta:     40    0.103388   -0.027084    0.000000
siesta:     41    0.158343   -0.098371    0.000000
siesta:     42  -33.834779  549.377608    0.000000
siesta:     43  -26.653581   -5.908871    0.000000
siesta:     44  -22.783545  557.878751    0.000000
siesta:     45  -21.328653   -5.520469    0.000000
siesta:     46   -0.082211  562.372568    0.000000
siesta:     47    2.361497   -1.839901    0.000000
siesta:     48   -2.160220   -0.380642    0.000000
siesta:     49    0.532614    2.301536    0.000000
siesta:     50   -2.625768   -1.848336    0.000000
siesta:     51    1.164195   -0.581789    0.000000
siesta:     52   -2.445365   -1.467042    0.000000
siesta:     53   -0.123746   -0.010182    0.000000
siesta:     54   -0.150722    0.083053    0.000000
siesta:     55    0.312878    7.153858    0.000000
siesta:     56    0.324867   -7.171173    0.000000
siesta:     57   -2.827867    1.203335    0.000000
siesta:     58    1.566876    0.912692    0.000000
siesta:     59    2.484670    1.896882    0.000000
siesta:     60   -0.693360   -2.210817    0.000000
siesta:     61    0.107743 -562.646724    0.000000
siesta:     62   -2.726430    1.639334    0.000000
siesta:     63    0.778207   -1.754511    0.000000
siesta:     64   21.336320    5.313018    0.000000
siesta:     65   23.105158 -557.497339    0.000000
siesta:     66  -21.118055    5.326061    0.000000
siesta:     67  -22.196272 -558.245318    0.000000
siesta:     68   -3.419987   -2.861583    0.000000
siesta:     69    0.072437  125.622048    0.000000
siesta:     70   -0.239259 -542.430633    0.000000
siesta:     71   -0.014280  128.649034    0.000000
siesta:     72    0.022062 -550.886816    0.000000
siesta: ----------------------------------------
siesta:    Tot   -0.212500   -0.096516    0.000000

siesta: Stress tensor (static) (eV/Ang**3):
siesta:    -0.476591   -0.002079    0.000000
siesta:    -0.002079   -1.799416    0.000000
siesta:     0.000000    0.000000   -0.000232

siesta: Cell volume =       1893.226884 Ang**3

siesta: Pressure (static):
siesta:                Solid            Molecule  Units
siesta:           0.00826372          0.12588280  Ry/Bohr**3
siesta:           0.75874642         11.55813092  eV/Ang**3
siesta:        1215.65892277      18518.36745524  kBar
(Free)E+ p_basis*V_orbitals  =       -9935.666659
(Free)Eharris+ p_basis*V_orbitals  =       -9935.681620

siesta: Electric dipole (a.u.)  =    0.000000    0.000000    0.000000
siesta: Electric dipole (Debye) =    0.000000    0.000000    0.000000

* Maximum dynamic memory allocated : Node    0 =   223 MB
* Maximum dynamic memory allocated : Node    1 =    78 MB
* Maximum dynamic memory allocated : Node    2 =    81 MB
* Maximum dynamic memory allocated : Node    3 =   211 MB
* Maximum dynamic memory allocated : Node    4 =   212 MB
* Maximum dynamic memory allocated : Node    5 =    77 MB
* Maximum dynamic memory allocated : Node    6 =    79 MB
* Maximum dynamic memory allocated : Node    7 =   195 MB

* Maximum memory occured during matrixMtoO                    

timer: CPU execution times:
timer:  Routine       Calls   Time/call    Tot.time        %
timer:  siesta            1  134096.309  134096.309   100.00
timer:  Setup             1       2.706       2.706     0.00
timer:  bands             3     243.324     729.973     0.54
timer:  writewave         1       0.018       0.018     0.00
timer:  KSV_init          1       0.005       0.005     0.00
timer:  IterMD            1  133358.412  133358.412    99.45
timer:  hsparse           1       0.514       0.514     0.00
timer:  overlap           1       5.531       5.531     0.00
timer:  IterSCF          39    3414.865  133179.725    99.32
timer:  kinefsm           2       2.889       5.777     0.00
timer:  nlefsm            2      18.801      37.601     0.03
timer:  DHSCF            40      91.193    3647.722     2.72
timer:  DHSCF1            1       0.990       0.990     0.00
timer:  DHSCF2            1      40.745      40.745     0.03
timer:  REORD           322       0.005       1.615     0.00
timer:  POISON           41       0.875      35.891     0.03
timer:  DHSCF3           40      89.241    3569.638     2.66
timer:  rhoofd           40      20.023     800.900     0.60
timer:  cellXC           40       3.266     130.639     0.10
timer:  vmat             40      41.896    1675.828     1.25
timer:  MolMec            2       0.000       0.000     0.00
timer:  diagon           39    3322.990  129596.628    96.64
timer:  c-eigval       9130       6.027   55024.018    41.03
timer:  c-buildHS      9130       0.050     452.749     0.34
timer:  cdiag         18139       6.165  111828.336    83.39
timer:  cdiag1        18139       0.386    7010.253     5.23
timer:  cdiag2        18139       1.768   32067.590    23.91
timer:  cdiag3        18139       3.729   67642.158    50.44
timer:  cdiag4        18139       0.150    2720.141     2.03
timer:  c-eigvec       9009       6.397   57627.191    42.97
timer:  c-buildD       9009       1.957   17628.996    13.15
timer:  DHSCF4            1      35.574      35.574     0.03
timer:  dfscf             1      32.928      32.928     0.02
timer:  overfsm           1       0.426       0.426     0.00
timer:  optical           1       4.553       4.553     0.00
  

elaps: ELAPSED times:
elaps:  Routine       Calls   Time/call    Tot.time        %
elaps:  siesta            1   16793.783   16793.783   100.00
elaps:  Setup             1       0.338       0.338     0.00
elaps:  bands             3      30.489      91.468     0.54
elaps:  writewave         1       0.002       0.002     0.00
elaps:  KSV_init          1       0.000       0.000     0.00
elaps:  IterMD            1   16701.374   16701.374    99.45
elaps:  hsparse           1       0.062       0.062     0.00
elaps:  overlap           1       0.906       0.906     0.01
elaps:  IterSCF          39     427.667   16678.997    99.32
elaps:  kinefsm           2       0.470       0.939     0.01
elaps:  nlefsm            2       2.375       4.750     0.03
elaps:  DHSCF            40      11.528     461.129     2.75
elaps:  DHSCF1            1       0.126       0.126     0.00
elaps:  DHSCF2            1       5.101       5.101     0.03
elaps:  REORD           322       0.001       0.215     0.00
elaps:  POISON           41       0.110       4.522     0.03
elaps:  DHSCF3           40      11.177     447.080     2.66
elaps:  rhoofd           40       5.340     213.589     1.27
elaps:  cellXC           40       0.409      16.342     0.10
elaps:  vmat             40       5.248     209.902     1.25
elaps:  MolMec            2       0.000       0.000     0.00
elaps:  diagon           39     416.170   16230.613    96.65
elaps:  c-eigval       9130       0.755    6890.881    41.03
elaps:  c-buildHS      9130       0.007      62.920     0.37
elaps:  cdiag         18139       0.767   13906.795    82.81
elaps:  cdiag1        18139       0.049     883.788     5.26
elaps:  cdiag2        18139       0.221    4016.876    23.92
elaps:  cdiag3        18139       0.468    8482.685    50.51
elaps:  cdiag4        18139       0.018     331.593     1.97
elaps:  c-eigvec       9009       0.791    7129.753    42.45
elaps:  c-buildD       9009       0.255    2293.496    13.66
elaps:  DHSCF4            1       8.730       8.730     0.05
elaps:  dfscf             1       8.207       8.207     0.05
elaps:  overfsm           1       0.055       0.055     0.00
elaps:  optical           1       0.000       0.000     0.00
  
>> End of run:  15-APR-2016   9:12:28
