Siesta Version:                                        siesta-3.2-pl-3
Architecture  : x86_64-unknown-linux-gnu--unknown
Compiler flags: mpiifort -g -O2 -fPIC -xSSE4.1 -fp-model source -shared-intel 
PARALLEL version

* Running on    8 nodes in parallel
>> Start of run:  23-APR-2016   2:25:11

                           ***********************       
                           *  WELCOME TO SIESTA  *       
                           ***********************       

reinit: Reading from standard input
************************** Dump of input data file ****************************
#(1) General system descriptors
SystemName            GRP_doping    # Descriptive name of the system
SystemLabel           GRP_doping    # Short name for naming files
%include STRUCT.fdf
%include KPT.fdf
%include BASIS.fdf
#%include TS.fdf # for transiesta calculation
#(4) DFT, Grid, SCF
XC.functional         GGA           # LDA or GGA (default = LDA)
XC.authors            PBE           # CA (Ceperley-Aldr) = PZ
                                    #    (Perdew-Zunger) - LDA - Default
                                    # PW92 (Perdew-Wang-92) - LDA
                                    # PBE (Perdew-Burke-Ernzerhof) - GGA
MeshCutoff            200.000000    Ry      # Default: 50.0 Ry ~ 0.444 Bohr
                                    #         100.0 Ry ~ 0.314 Bohr
MaxSCFIterations      500           # Default: 50
DM.MixingWeight       0.05          # Default: 0.25
DM.NumberPulay        10            # Default: 0
DM.PulayOnFile        F             # SystemLabel.P1, SystemLabel.P2
DM.Tolerance          1.d-4         # Default: 1.d-4
DM.UseSaveDM          .true.        # because of the bug
SCFMustConverge       .true.
NeglNonOverlapInt     F             # Default: F
#(5) Eigenvalue problem: order-N or diagonalization
SolutionMethod        Diagon        # or Transiesta
ElectronicTemperature 300.0 K       # Default: 300.0 K
#(6) Molecular dynamics and relaxations
#MD.TypeOfRun          CG            # Type of dynamics:
#MD.VariableCell       F
#MD.NumCGsteps         0           # 0 for single-point / 100 for gopt
#MD.MaxCGDispl         0.2 Bohr      # Default: 0.2 Bohr
#MD.MaxForceTol        0.02 eV/Ang   # Default: 0.04 eV/Ang
#MD.MaxStressTol       1.0 GPa       # Default: 1.0 GPa
# Geometry Constraints
#%block GeometryConstraints
#	position from 1 to 44
#%endblock GeometryConstraints
BandLinesScale   pi/a
%block BandLines
 1   0.00000000  0.00000000  0.00000000
50   0.00000000  0.07809418  0.00000000
50   0.04509075  0.07809242  0.00000000
20   0.00000000  0.00000000  0.00000000
%endblock BandLines
************************** End of input data file *****************************

reinit: -----------------------------------------------------------------------
reinit: System Name: GRP_doping
reinit: -----------------------------------------------------------------------
reinit: System Label: GRP_doping                                                  
reinit: -----------------------------------------------------------------------

initatom: Reading input for the pseudopotentials and atomic orbitals ----------
 Species number:            1  Label: B Atomic number:           5
 Species number:            2  Label: C Atomic number:           6
Ground state valence configuration:   2s02  2p01
Reading pseudopotential information in formatted form from B.psf

Valence configuration for pseudopotential generation:
2s( 2.00) rc: 1.74
2p( 1.00) rc: 1.74
3d( 0.00) rc: 1.74
4f( 0.00) rc: 1.74
Ground state valence configuration:   2s02  2p02
Reading pseudopotential information in formatted form from C.psf

Valence configuration for pseudopotential generation:
2s( 2.00) rc: 1.54
2p( 2.00) rc: 1.54
3d( 0.00) rc: 1.54
4f( 0.00) rc: 1.54
For B, standard SIESTA heuristics set lmxkb to 3
 (one more than the basis l, including polarization orbitals).
Use PS.lmax or PS.KBprojectors blocks to override.
For C, standard SIESTA heuristics set lmxkb to 3
 (one more than the basis l, including polarization orbitals).
Use PS.lmax or PS.KBprojectors blocks to override.

<basis_specs>
===============================================================================
B                    Z=   5    Mass=  10.810        Charge= 0.17977+309
Lmxo=1 Lmxkb= 3    BasisType=split      Semic=F
L=0  Nsemic=0  Cnfigmx=2
          n=1  nzeta=2  polorb=0
            splnorm:   0.15000    
               vcte:    0.0000    
               rinn:    0.0000    
                rcs:    0.0000      0.0000    
            lambdas:    1.0000      1.0000    
L=1  Nsemic=0  Cnfigmx=2
          n=1  nzeta=2  polorb=1
            splnorm:   0.15000    
               vcte:    0.0000    
               rinn:    0.0000    
                rcs:    0.0000      0.0000    
            lambdas:    1.0000      1.0000    
-------------------------------------------------------------------------------
L=0  Nkbl=1  erefs: 0.17977+309
L=1  Nkbl=1  erefs: 0.17977+309
L=2  Nkbl=1  erefs: 0.17977+309
L=3  Nkbl=1  erefs: 0.17977+309
===============================================================================
</basis_specs>

atom: Called for B                     (Z =   5)

read_vps: Pseudopotential generation method:
read_vps: ATM3      Troullier-Martins                       
Total valence charge:    3.00000

read_vps: Pseudopotential includes a core correction:
read_vps: Pseudo-core for xc-correction

xc_check: Exchange-correlation functional:
xc_check: GGA Perdew, Burke & Ernzerhof 1996
V l=0 = -2*Zval/r beyond r=  1.7165
V l=1 = -2*Zval/r beyond r=  1.7165
V l=2 = -2*Zval/r beyond r=  1.7165
V l=3 = -2*Zval/r beyond r=  1.6951
All V_l potentials equal beyond r=  1.7165
This should be close to max(r_c) in ps generation
All pots = -2*Zval/r beyond r=  1.7165

VLOCAL1: 99.0% of the norm of Vloc inside     14.733 Ry
VLOCAL1: 99.9% of the norm of Vloc inside     33.577 Ry
atom: Maximum radius for 4*pi*r*r*local-pseudopot. charge    2.04484
atom: Maximum radius for r*vlocal+2*Zval:    1.75994
GHOST: No ghost state for L =  0
GHOST: No ghost state for L =  1
GHOST: No ghost state for L =  2
GHOST: No ghost state for L =  3

KBgen: Kleinman-Bylander projectors: 
   l= 0   rc=  1.897051   el= -0.693730   Ekb=  4.595746   kbcos=  0.286105
   l= 1   rc=  1.920920   el= -0.265236   Ekb= -2.350715   kbcos= -0.315747
   l= 2   rc=  2.044840   el=  0.002055   Ekb= -0.690767   kbcos= -0.013822
   l= 3   rc=  2.149707   el=  0.003188   Ekb= -0.315358   kbcos= -0.002055

KBgen: Total number of  Kleinman-Bylander projectors:   16
atom: -------------------------------------------------------------------------

atom: SANKEY-TYPE ORBITALS:
atom: Selected multiple-zeta basis: split     

SPLIT: Orbitals with angular momentum L= 0

SPLIT: Basis orbitals for state 2s

SPLIT: PAO cut-off radius determined from an
SPLIT: energy shift=  0.007350 Ry

   izeta = 1
                 lambda =    1.000000
                     rc =    5.422032
                 energy =   -0.686029
                kinetic =    0.576707
    potential(screened) =   -1.262736
       potential(ionic) =   -3.271094

   izeta = 2
                 rmatch =    4.222573
              splitnorm =    0.150000
                 energy =   -0.602132
                kinetic =    0.858975
    potential(screened) =   -1.461107
       potential(ionic) =   -3.582536

SPLIT: Orbitals with angular momentum L= 1

SPLIT: Basis orbitals for state 2p

SPLIT: PAO cut-off radius determined from an
SPLIT: energy shift=  0.007350 Ry

   izeta = 1
                 lambda =    1.000000
                     rc =    6.790259
                 energy =   -0.258578
                kinetic =    1.481412
    potential(screened) =   -1.739989
       potential(ionic) =   -3.657461

   izeta = 2
                 rmatch =    4.608740
              splitnorm =    0.150000
                 energy =   -0.173757
                kinetic =    2.186690
    potential(screened) =   -2.360447
       potential(ionic) =   -4.464260

POLgen: Perturbative polarization orbital with L=  2

POLgen: Polarization orbital for state 2p

   izeta = 1
                     rc =    6.790259
                 energy =    0.684082
                kinetic =    1.471481
    potential(screened) =   -0.787399
       potential(ionic) =   -2.406985
atom: Total number of Sankey-type orbitals: 13

atm_pop: Valence configuration (for local Pseudopot. screening):
 2s( 2.00)                                                            
 2p( 1.00)                                                            
Vna: chval, zval:    3.00000   3.00000

Vna:  Cut-off radius for the neutral-atom potential:   6.790259
comcore: Pseudo-core radius Rcore=  2.122997

atom: _________________________________________________________________________

<basis_specs>
===============================================================================
C                    Z=   6    Mass=  12.010        Charge= 0.17977+309
Lmxo=1 Lmxkb= 3    BasisType=split      Semic=F
L=0  Nsemic=0  Cnfigmx=2
          n=1  nzeta=2  polorb=0
            splnorm:   0.15000    
               vcte:    0.0000    
               rinn:    0.0000    
                rcs:    0.0000      0.0000    
            lambdas:    1.0000      1.0000    
L=1  Nsemic=0  Cnfigmx=2
          n=1  nzeta=2  polorb=1
            splnorm:   0.15000    
               vcte:    0.0000    
               rinn:    0.0000    
                rcs:    0.0000      0.0000    
            lambdas:    1.0000      1.0000    
-------------------------------------------------------------------------------
L=0  Nkbl=1  erefs: 0.17977+309
L=1  Nkbl=1  erefs: 0.17977+309
L=2  Nkbl=1  erefs: 0.17977+309
L=3  Nkbl=1  erefs: 0.17977+309
===============================================================================
</basis_specs>

atom: Called for C                     (Z =   6)

read_vps: Pseudopotential generation method:
read_vps: ATM3      Troullier-Martins                       
Total valence charge:    4.00000

read_vps: Pseudopotential includes a core correction:
read_vps: Pseudo-core for xc-correction

xc_check: Exchange-correlation functional:
xc_check: GGA Perdew, Burke & Ernzerhof 1996
V l=0 = -2*Zval/r beyond r=  1.5227
V l=1 = -2*Zval/r beyond r=  1.5227
V l=2 = -2*Zval/r beyond r=  1.5227
V l=3 = -2*Zval/r beyond r=  1.5038
All V_l potentials equal beyond r=  1.5227
This should be close to max(r_c) in ps generation
All pots = -2*Zval/r beyond r=  1.5227

VLOCAL1: 99.0% of the norm of Vloc inside     18.722 Ry
VLOCAL1: 99.9% of the norm of Vloc inside     42.668 Ry
atom: Maximum radius for 4*pi*r*r*local-pseudopot. charge    1.83678
atom: Maximum radius for r*vlocal+2*Zval:    1.58088
GHOST: No ghost state for L =  0
GHOST: No ghost state for L =  1
GHOST: No ghost state for L =  2
GHOST: No ghost state for L =  3

KBgen: Kleinman-Bylander projectors: 
   l= 0   rc=  1.704034   el= -1.009801   Ekb=  5.335044   kbcos=  0.316824
   l= 1   rc=  1.704034   el= -0.388707   Ekb= -3.785862   kbcos= -0.366464
   l= 2   rc=  1.791422   el=  0.001971   Ekb= -0.970471   kbcos= -0.009212
   l= 3   rc=  1.859892   el=  0.003065   Ekb= -0.399525   kbcos= -0.001223

KBgen: Total number of  Kleinman-Bylander projectors:   16
atom: -------------------------------------------------------------------------

atom: SANKEY-TYPE ORBITALS:
atom: Selected multiple-zeta basis: split     

SPLIT: Orbitals with angular momentum L= 0

SPLIT: Basis orbitals for state 2s

SPLIT: PAO cut-off radius determined from an
SPLIT: energy shift=  0.007350 Ry

   izeta = 1
                 lambda =    1.000000
                     rc =    4.632753
                 energy =   -1.002270
                kinetic =    0.855760
    potential(screened) =   -1.858031
       potential(ionic) =   -5.417575

   izeta = 2
                 rmatch =    3.431921
              splitnorm =    0.150000
                 energy =   -0.867111
                kinetic =    1.300804
    potential(screened) =   -2.167915
       potential(ionic) =   -5.962684

SPLIT: Orbitals with angular momentum L= 1

SPLIT: Basis orbitals for state 2p

SPLIT: PAO cut-off radius determined from an
SPLIT: energy shift=  0.007350 Ry

   izeta = 1
                 lambda =    1.000000
                     rc =    5.658549
                 energy =   -0.381140
                kinetic =    2.399701
    potential(screened) =   -2.780841
       potential(ionic) =   -6.206085

   izeta = 2
                 rmatch =    3.653288
              splitnorm =    0.150000
                 energy =   -0.249149
                kinetic =    3.542762
    potential(screened) =   -3.791911
       potential(ionic) =   -7.581078

POLgen: Perturbative polarization orbital with L=  2

POLgen: Polarization orbital for state 2p

   izeta = 1
                     rc =    5.658549
                 energy =    1.109913
                kinetic =    2.304789
    potential(screened) =   -1.194876
       potential(ionic) =   -4.013592
atom: Total number of Sankey-type orbitals: 13

atm_pop: Valence configuration (for local Pseudopot. screening):
 2s( 2.00)                                                            
 2p( 2.00)                                                            
Vna: chval, zval:    4.00000   4.00000

Vna:  Cut-off radius for the neutral-atom potential:   5.658549
comcore: Pseudo-core radius Rcore=  1.791422

atom: _________________________________________________________________________

prinput: Basis input ----------------------------------------------------------

PAO.BasisType split     

%block ChemicalSpeciesLabel
    1    5 B                       # Species index, atomic number, species label
    2    6 C                       # Species index, atomic number, species label
%endblock ChemicalSpeciesLabel

%block PAO.Basis                 # Define Basis set
B                     2                    # Species label, number of l-shells
 n=2   0   2                         # n, l, Nzeta 
   5.422      4.223   
   1.000      1.000   
 n=2   1   2 P   1                   # n, l, Nzeta, Polarization, NzetaPol
   6.790      4.609   
   1.000      1.000   
C                     2                    # Species label, number of l-shells
 n=2   0   2                         # n, l, Nzeta 
   4.633      3.432   
   1.000      1.000   
 n=2   1   2 P   1                   # n, l, Nzeta, Polarization, NzetaPol
   5.659      3.653   
   1.000      1.000   
%endblock PAO.Basis

prinput: ----------------------------------------------------------------------

coor:   Atomic-coordinates input format  =     Fractional

siesta: Atomic coordinates (Bohr) and species
siesta:     -2.35420  38.89134   0.00000  1        1
siesta:     -2.35420  41.57980   0.00000  1        2
siesta:      2.30256  38.89134   0.00000  1        3
siesta:      2.30256  41.57980   0.00000  1        4
siesta:      4.63094  34.85847   0.00000  1        5
siesta:      4.63094  37.54693   0.00000  1        6
siesta:      6.95932  30.82560   0.00000  1        7
siesta:      6.95932  33.51406   0.00000  1        8
siesta:     -4.68258  34.85847   0.00000  1        9
siesta:     -4.68258  37.54693   0.00000  1       10
siesta:     -2.35420  25.44831   0.00000  1       11
siesta:      4.63094  29.48119   0.00000  1       12
siesta:     -0.02582  26.79272   0.00000  1       13
siesta:     -0.02582  29.48119   0.00000  1       14
siesta:     -4.68258  26.79272   0.00000  1       15
siesta:     -4.68258  29.48119   0.00000  1       16
siesta:      2.30256  30.82560   0.00000  1       17
siesta:      2.30256  33.51406   0.00000  1       18
siesta:     -2.35420  30.82560   0.00000  1       19
siesta:     -2.35420  33.51406   0.00000  1       20
siesta:     -0.02582  34.85847   0.00000  1       21
siesta:     -0.02582  37.54693   0.00000  1       22
siesta:     -0.02582  42.92421   0.00000  1       23
siesta:     -0.02582  45.61267   0.00000  1       24
siesta:     -0.02582   2.59549   0.00000  2       25
siesta:     -0.02582   5.28395   0.00000  2       26
siesta:      9.28770  26.79272   0.00000  2       27
siesta:      9.28770  29.48119   0.00000  2       28
siesta:      2.30256   6.62836   0.00000  2       29
siesta:      2.30256   9.31683   0.00000  2       30
siesta:      4.63094  10.66124   0.00000  2       31
siesta:      4.63094  13.34970   0.00000  2       32
siesta:      6.95932  14.69411   0.00000  2       33
siesta:      6.95932  17.38257   0.00000  2       34
siesta:      9.28770  18.72698   0.00000  2       35
siesta:      9.28770  21.41544   0.00000  2       36
siesta:     11.61608  22.75985   0.00000  2       37
siesta:     11.61608  25.44831   0.00000  2       38
siesta:     -2.35420   6.62836   0.00000  2       39
siesta:     -2.35420   9.31683   0.00000  2       40
siesta:     -0.02582  10.66124   0.00000  2       41
siesta:     -0.02582  13.34970   0.00000  2       42
siesta:      2.30256  14.69411   0.00000  2       43
siesta:      2.30256  17.38257   0.00000  2       44
siesta:      4.63094  18.72698   0.00000  2       45
siesta:      4.63094  21.41544   0.00000  2       46
siesta:      6.95932  22.75985   0.00000  2       47
siesta:      6.95932  25.44831   0.00000  2       48
siesta:     -4.68258  10.66124   0.00000  2       49
siesta:     -4.68258  13.34970   0.00000  2       50
siesta:     -2.35420  14.69411   0.00000  2       51
siesta:     -2.35420  17.38257   0.00000  2       52
siesta:     -0.02582  18.72698   0.00000  2       53
siesta:     -0.02582  21.41544   0.00000  2       54
siesta:      2.30256  22.75985   0.00000  2       55
siesta:      2.30256  25.44831   0.00000  2       56
siesta:     -7.01096  14.69411   0.00000  2       57
siesta:     -7.01096  17.38257   0.00000  2       58
siesta:     -4.68258  18.72698   0.00000  2       59
siesta:     -4.68258  21.41544   0.00000  2       60
siesta:     -2.35420  22.75985   0.00000  2       61
siesta:     -9.33934  18.72698   0.00000  2       62
siesta:     -9.33934  21.41544   0.00000  2       63
siesta:     -7.01096  22.75985   0.00000  2       64
siesta:     -7.01096  25.44831   0.00000  2       65
siesta:    -11.66772  22.75985   0.00000  2       66
siesta:    -11.66772  25.44831   0.00000  2       67
siesta:     -9.33934  26.79272   0.00000  2       68
siesta:     -9.33934  29.48119   0.00000  2       69
siesta:      4.63094  26.79272   0.00000  2       70
siesta:     -7.01096  30.82560   0.00000  2       71
siesta:     -7.01096  33.51406   0.00000  2       72

siesta: System type = slab      

initatomlists: Number of atoms, orbitals, and projectors:     72   936  1152

siesta: ******************** Simulation parameters ****************************
siesta:
siesta: The following are some of the parameters of the simulation.
siesta: A complete list of the parameters used, including default values,
siesta: can be found in file out.fdf
siesta:
redata: Non-Collinear-spin run           =     F
redata: SpinPolarized (Up/Down) run      =     F
redata: Number of spin components        =     1
redata: Long output                      =     F
redata: Number of Atomic Species         =        2
redata: Charge density info will appear in .RHO file
redata: Write Mulliken Pop.              =     NO
redata: Mesh Cutoff                      =   200.0000  Ry
redata: Net charge of the system         =     0.0000 |e|
redata: Max. number of SCF Iter          =      500
redata: SCF convergence failure will abort job
redata: Performing Pulay mixing using    =    10 iterations
redata: Mix DM in first SCF step ?       =     F
redata: Write Pulay info on disk?        =     F
redata: Discard 1st Pulay DM after  kick =     F
redata: New DM Mixing Weight             =     0.0500
redata: New DM Occupancy tolerance       = 0.000000000001
redata: No kicks to SCF
redata: DM Mixing Weight for Kicks       =     0.5000
redata: DM Tolerance for SCF             =     0.000100
redata: Require Energy convergence for SCF =     F
redata: DM Energy tolerance for SCF      =     0.000100 eV
redata: Require Harris convergence for SCF =     F
redata: DM Harris energy tolerance for SCF =     0.000100 eV
redata: Using Saved Data (generic)   =     F
redata: Use continuation files for DM    =     T
redata: Neglect nonoverlap interactions  =     F
redata: Method of Calculation            =     Diagonalization
redata: Divide and Conquer               =     T
redata: Electronic Temperature           =     0.0019  Ry
redata: Fix the spin of the system       =     F
redata: Dynamics option                  =     Verlet MD run
redata: Initial MD time step             =        1
redata:   Final MD time step             =        1
redata: Length of MD time step           =     1.0000  fs
redata: Initial Temperature of MD run    =     0.0000  K
redata: Perform a MD quench              =     F
redata: ***********************************************************************
Total number of electrons:   264.000000
Total ionic charge:   264.000000

* ProcessorY, Blocksize:    2  24

k-point displ. along   1 input, could be:     0.50    0.00
k-point displ. along   2 input, could be:     0.50    0.00
 Kpoints in:          231 . Kpoints trimmed:          231

siesta: k-grid: Number of k-points =   231
siesta: k-grid: Cutoff (effective) =     5.000 Ang
siesta: k-grid: Supercell and displacements
siesta: k-grid:   21   0   0      0.500
siesta: k-grid:    0  21   0      0.500
siesta: k-grid:    0   0   1      0.000
Naive supercell factors:     2    2    2

superc: Internal auxiliary supercell:     2 x     2 x     2  =       8
superc: Number of atoms, orbitals, and projectors:    576   7488   9216

* Maximum dynamic memory allocated =     4 MB

siesta:                 ==============================
                            Begin MD step =      1
                        ==============================

superc: Internal auxiliary supercell:     2 x     2 x     2  =       8
superc: Number of atoms, orbitals, and projectors:    576   7488   9216

outcell: Unit cell vectors (Ang):
       12.804619    7.392750    0.000000
        0.000000   14.785500    0.000000
        0.000000    0.000000   10.000000

outcell: Cell vector modules (Ang)   :   14.785500   14.785500   10.000000
outcell: Cell angles (23,13,12) (deg):     90.0000     90.0000     60.0000
outcell: Cell volume (Ang**3)        :   1893.2269
New_DM. Step:     1
Initializing Density Matrix...

InitMesh: MESH =   120 x   120 x    90 =     1296000
InitMesh: Mesh cutoff (required, used) =   200.000   223.865 Ry

* Maximum dynamic memory allocated =   238 MB

stepf: Fermi-Dirac step function

siesta: Program's energy decomposition (eV):
siesta: Ebs     =     -5399.182613
siesta: Eions   =     15329.650002
siesta: Ena     =      4127.932953
siesta: Ekin    =      5112.466478
siesta: Enl     =       854.958778
siesta: DEna    =        -0.000007
siesta: DUscf   =         0.000000
siesta: DUext   =         0.000000
siesta: Exc     =     -4187.802916
siesta: eta*DQ  =         0.000000
siesta: Emadel  =         0.000000
siesta: Emeta   =         0.000000
siesta: Emolmec =         0.000000
siesta: Ekinion =         0.000000
siesta: Eharris =     -9302.838096
siesta: Etot    =     -9422.094716
siesta: FreeEng =     -9422.094716

siesta: iscf   Eharris(eV)      E_KS(eV)   FreeEng(eV)   dDmax  Ef(eV)
siesta:    1    -9302.8381    -9422.0947    -9422.0947  7.6436 -8.5122
timer: Routine,Calls,Time,% = IterSCF        1    4731.931  99.75
elaps: Routine,Calls,Wall,% = IterSCF        1     592.300  99.75
siesta:    2   -16534.4571    -8202.6876    -8202.7171 15.5558 -9.1479
siesta:    3    -9521.7082    -9219.4093    -9219.4611  1.5683 -5.4861
siesta:    4    -9376.9774    -9184.6033    -9184.6066  1.5570 -5.1426
siesta:    5    -9276.1128    -9149.1425    -9149.1755  1.5052 -5.2750
siesta:    6    -9220.8558    -9125.7225    -9125.7880  1.4549 -5.1947
siesta:    7    -9174.1773    -9113.0867    -9113.0964  1.3549 -5.4790
siesta:    8    -9143.1876    -9101.8984    -9101.9373  1.0909 -5.2685
siesta:    9    -9139.9490    -9093.4012    -9093.4485  0.9904 -5.1529
siesta:   10    -9135.6215    -9095.6730    -9095.7026  0.6469 -5.2066
siesta:   11    -9136.7847    -9098.6569    -9098.7336  0.7825 -5.2403
siesta:   12    -9135.9487    -9091.7575    -9091.8306  0.7837 -5.1134
siesta:   13    -9134.6118    -9098.0186    -9098.0825  0.6303 -5.1046
siesta:   14    -9134.6762    -9104.9811    -9105.0581  0.5206 -5.1556
siesta:   15    -9134.2350    -9113.9429    -9114.0104  0.4693 -5.2009
siesta:   16    -9134.1158    -9118.8686    -9118.9475  0.7794 -5.3127
siesta:   17    -9133.8865    -9119.2865    -9119.3718  0.4584 -5.2855
siesta:   18    -9133.8544    -9119.0845    -9119.1880  0.5146 -5.2881
siesta:   19    -9133.5991    -9125.1528    -9125.2575  0.3880 -5.3122
siesta:   20    -9133.5691    -9127.6804    -9127.7913  0.1676 -5.2894
siesta:   21    -9133.5208    -9130.4423    -9130.5446  0.1768 -5.3239
siesta:   22    -9133.4841    -9131.4509    -9131.5655  0.1417 -5.3213
siesta:   23    -9133.4587    -9134.4697    -9134.5798  0.1540 -5.3283
siesta:   24    -9133.4560    -9133.5027    -9133.6109  0.1088 -5.3214
siesta:   25    -9133.4416    -9134.2499    -9134.3537  0.0681 -5.3276
siesta:   26    -9133.4168    -9133.4281    -9133.5383  0.0671 -5.3065
siesta:   27    -9133.4104    -9133.7829    -9133.8848  0.0345 -5.2888
siesta:   28    -9133.4054    -9133.5924    -9133.6985  0.0445 -5.2894
siesta:   29    -9133.4059    -9133.5804    -9133.6876  0.0352 -5.2870
siesta:   30    -9133.4006    -9133.7197    -9133.8259  0.0349 -5.2850
siesta:   31    -9133.4037    -9133.1271    -9133.2350  0.0379 -5.2810
siesta:   32    -9133.4026    -9133.0391    -9133.1430  0.0286 -5.2816
siesta:   33    -9133.4014    -9133.1151    -9133.2197  0.0123 -5.2847
siesta:   34    -9133.4004    -9133.2392    -9133.3443  0.0040 -5.2859
siesta:   35    -9133.4002    -9133.3462    -9133.4521  0.0034 -5.2870
siesta:   36    -9133.4001    -9133.3206    -9133.4266  0.0017 -5.2871
siesta:   37    -9133.4000    -9133.3204    -9133.4265  0.0014 -5.2871
siesta:   38    -9133.4000    -9133.3247    -9133.4309  0.0011 -5.2872
siesta:   39    -9133.4001    -9133.3632    -9133.4694  0.0011 -5.2873
siesta:   40    -9133.4000    -9133.3857    -9133.4918  0.0007 -5.2876
siesta:   41    -9133.4000    -9133.3861    -9133.4922  0.0004 -5.2876
siesta:   42    -9133.4000    -9133.3949    -9133.5010  0.0004 -5.2877
siesta:   43    -9133.4000    -9133.3996    -9133.5058  0.0003 -5.2877
siesta:   44    -9133.4000    -9133.4019    -9133.5080  0.0001 -5.2877
siesta:   45    -9133.4000    -9133.4020    -9133.5081  0.0001 -5.2877
siesta:   46    -9133.4000    -9133.4012    -9133.5073  0.0001 -5.2877

siesta: E_KS(eV) =            -9133.4006

siesta: E_KS - E_eggbox =     -9133.4006

siesta: Atomic forces (eV/Ang):
----------------------------------------
   Tot   -0.172333   -0.030626    0.000000
----------------------------------------
   Max  418.566724
   Res  118.819619    sqrt( Sum f_i^2 / 3N )
----------------------------------------
   Max  418.566724    constrained

Stress-tensor-Voigt (kbar):     -633.35    -2267.10       -0.68        1.84        0.00        0.00
(Free)E + p*V (eV/cell)    -7990.7983
Target enthalpy (eV/cell)    -9133.5067

siesta: Stress tensor (static) (eV/Ang**3):
        -0.395305    0.001146    0.000000
         0.001146   -1.415000    0.000000
         0.000000    0.000000   -0.000427

siesta: Pressure (static):        967.04764651  kBar

siesta: Stress tensor (total) (eV/Ang**3):
        -0.395305    0.001146    0.000000
         0.001146   -1.415000    0.000000
         0.000000    0.000000   -0.000427

siesta: Pressure (total):        967.04764651  kBar

siesta: Temp_ion =       0.000 K

* Maximum dynamic memory allocated =   255 MB
Computing bands...

siesta: Program's energy decomposition (eV):
siesta: Ebs     =     -4033.611901
siesta: Eions   =     15329.650002
siesta: Ena     =      4127.932953
siesta: Ekin    =      7791.482711
siesta: Enl     =      -780.616624
siesta: DEna    =      -693.074635
siesta: DUscf   =        90.838842
siesta: DUext   =         0.000000
siesta: Exc     =     -4340.313823
siesta: eta*DQ  =         0.000000
siesta: Emadel  =         0.000000
siesta: Emeta   =         0.000000
siesta: Emolmec =         0.000000
siesta: Ekinion =         0.000000
siesta: Eharris =     -9133.400000
siesta: Etot    =     -9133.400579
siesta: FreeEng =     -9133.506722

siesta: Final energy (eV):
siesta:  Band Struct. =   -4033.611901
siesta:       Kinetic =    7791.482711
siesta:       Hartree =   24466.769595
siesta:    Ext. field =       0.000000
siesta:   Exch.-corr. =   -4340.313823
siesta:  Ion-electron =  -56449.080061
siesta:       Ion-ion =   19397.740999
siesta:       Ekinion =       0.000000
siesta:         Total =   -9133.400579

siesta: Atomic forces (eV/Ang):
siesta:      1    1.593419  107.017057    0.000000
siesta:      2    2.689143 -399.529128    0.000000
siesta:      3   -0.755409  106.664810    0.000000
siesta:      4   -2.773353 -399.040776    0.000000
siesta:      5   14.656344    0.516052    0.000000
siesta:      6   16.985342 -393.876805    0.000000
siesta:      7    8.460501    0.874156    0.000000
siesta:      8    3.222261    3.553503    0.000000
siesta:      9  -19.745077   -2.158118    0.000000
siesta:     10  -17.791236 -394.078993    0.000000
siesta:     11    0.207676   -3.971391    0.000000
siesta:     12   -0.970085   -3.301956    0.000000
siesta:     13    3.458711   -1.098824    0.000000
siesta:     14    1.449910 -408.488350    0.000000
siesta:     15   -3.374456   -2.382129    0.000000
siesta:     16   -2.401955    3.310891    0.000000
siesta:     17   14.027300    0.606525    0.000000
siesta:     18   13.428222 -402.548603    0.000000
siesta:     19  -13.699070    0.900255    0.000000
siesta:     20  -13.217497 -402.301560    0.000000
siesta:     21    0.421851  107.504073    0.000000
siesta:     22   -0.578449 -389.761145    0.000000
siesta:     23   -0.033878  105.361159    0.000000
siesta:     24    0.170920 -407.577842    0.000000
siesta:     25   -0.666202  403.095102    0.000000
siesta:     26   -0.351680 -121.016209    0.000000
siesta:     27    3.674062    2.859568    0.000000
siesta:     28    0.004268   -3.069813    0.000000
siesta:     29   17.236900  407.023278    0.000000
siesta:     30    1.919402 -120.609367    0.000000
siesta:     31   31.635624  401.418102    0.000000
siesta:     32   24.056033    2.639927    0.000000
siesta:     33   -2.730315   -2.701748    0.000000
siesta:     34    2.189353   -0.159520    0.000000
siesta:     35   -0.789079   -0.242044    0.000000
siesta:     36    1.981822   -2.134452    0.000000
siesta:     37    0.189214    6.987215    0.000000
siesta:     38    0.037736   -7.397579    0.000000
siesta:     39  -17.230457  406.430471    0.000000
siesta:     40   -2.044051 -120.221010    0.000000
siesta:     41    0.000623  407.668961    0.000000
siesta:     42   -0.016573 -122.572674    0.000000
siesta:     43   29.048490  413.250222    0.000000
siesta:     44   20.988556   -2.018666    0.000000
siesta:     45   -0.845406    1.309236    0.000000
siesta:     46    0.150790   -0.375270    0.000000
siesta:     47   -0.114765    0.769277    0.000000
siesta:     48   -0.991379   -1.145273    0.000000
siesta:     49  -30.944308  400.758532    0.000000
siesta:     50  -23.912656    2.510136    0.000000
siesta:     51  -28.939877  413.695460    0.000000
siesta:     52  -20.966203   -2.179599    0.000000
siesta:     53    0.203930  418.566724    0.000000
siesta:     54   -0.963510    2.462729    0.000000
siesta:     55    0.264561    0.297163    0.000000
siesta:     56    2.900944   -2.003202    0.000000
siesta:     57    2.700826   -2.578014    0.000000
siesta:     58   -2.266705   -0.182043    0.000000
siesta:     59    0.537904    1.736855    0.000000
siesta:     60   -0.538311   -1.320688    0.000000
siesta:     61    0.898446   -3.277982    0.000000
siesta:     62    0.811916   -0.134967    0.000000
siesta:     63   -2.001660   -2.351309    0.000000
siesta:     64    0.123039    0.728178    0.000000
siesta:     65   -2.085429   -2.792860    0.000000
siesta:     66   -0.789909    6.264891    0.000000
siesta:     67    0.669944   -6.736754    0.000000
siesta:     68   -2.892095    2.070162    0.000000
siesta:     69    1.723104   -0.081092    0.000000
siesta:     70    0.047493   -4.028486    0.000000
siesta:     71   -7.863882    2.838060    0.000000
siesta:     72    0.346006   -0.273115    0.000000
siesta: ----------------------------------------
siesta:    Tot   -0.172333   -0.030626    0.000000

siesta: Stress tensor (static) (eV/Ang**3):
siesta:    -0.395305    0.001146    0.000000
siesta:     0.001146   -1.415000    0.000000
siesta:     0.000000    0.000000   -0.000427

siesta: Cell volume =       1893.226884 Ang**3

siesta: Pressure (static):
siesta:                Solid            Molecule  Units
siesta:           0.00657373          0.09034757  Ry/Bohr**3
siesta:           0.60357714          8.29540642  eV/Ang**3
siesta:         967.04764651      13290.84999780  kBar
(Free)E+ p_basis*V_orbitals  =       -9095.186224
(Free)Eharris+ p_basis*V_orbitals  =       -9095.185067

siesta: Electric dipole (a.u.)  =    0.000000    0.000000    0.000000
siesta: Electric dipole (Debye) =    0.000000    0.000000    0.000000

* Maximum dynamic memory allocated : Node    0 =   255 MB
* Maximum dynamic memory allocated : Node    1 =    88 MB
* Maximum dynamic memory allocated : Node    2 =    91 MB
* Maximum dynamic memory allocated : Node    3 =   240 MB
* Maximum dynamic memory allocated : Node    4 =   225 MB
* Maximum dynamic memory allocated : Node    5 =    83 MB
* Maximum dynamic memory allocated : Node    6 =    84 MB
* Maximum dynamic memory allocated : Node    7 =   208 MB

* Maximum memory occured during matrixMtoO                    

timer: CPU execution times:
timer:  Routine       Calls   Time/call    Tot.time        %
timer:  siesta            1  218192.448  218192.448   100.00
timer:  Setup             1       3.070       3.070     0.00
timer:  bands             3     273.727     821.181     0.38
timer:  writewave         1       0.019       0.019     0.00
timer:  KSV_init          1       0.000       0.000     0.00
timer:  IterMD            1  217362.277  217362.277    99.62
timer:  hsparse           1       0.400       0.400     0.00
timer:  overlap           1       7.786       7.786     0.00
timer:  IterSCF          46    4719.615  217102.281    99.50
timer:  kinefsm           2       4.034       8.068     0.00
timer:  nlefsm            2      21.882      43.765     0.02
timer:  DHSCF            47     138.993    6532.672     2.99
timer:  DHSCF1            1       0.995       0.995     0.00
timer:  DHSCF2            1      46.976      46.976     0.02
timer:  REORD           378       0.010       3.958     0.00
timer:  POISON           48       2.515     120.706     0.06
timer:  DHSCF3           47     136.938    6436.091     2.95
timer:  rhoofd           47      27.701    1301.936     0.60
timer:  cellXC           47       3.484     163.731     0.08
timer:  vmat             47      66.266    3114.513     1.43
timer:  MolMec            2       0.000       0.000     0.00
timer:  diagon           46    4579.430  210653.799    96.54
timer:  c-eigval      10747       6.773   72786.059    33.36
timer:  c-buildHS     10747       0.154    1658.955     0.76
timer:  cdiag         21373       6.952  148592.941    68.10
timer:  cdiag1        21373       0.433    9262.307     4.25
timer:  cdiag2        21373       1.923   41102.603    18.84
timer:  cdiag3        21373       3.975   84959.378    38.94
timer:  cdiag4        21373       0.233    4973.064     2.28
timer:  c-eigvec      10626       7.371   78325.030    35.90
timer:  c-buildD      10626       5.675   60302.599    27.64
timer:  DHSCF4            1      45.963      45.963     0.02
timer:  dfscf             1      43.230      43.230     0.02
timer:  overfsm           1       0.477       0.477     0.00
timer:  optical           1       5.172       5.172     0.00
  

elaps: ELAPSED times:
elaps:  Routine       Calls   Time/call    Tot.time        %
elaps:  siesta            1   27310.820   27310.820   100.00
elaps:  Setup             1       0.382       0.382     0.00
elaps:  bands             3      34.270     102.809     0.38
elaps:  writewave         1       0.002       0.002     0.00
elaps:  KSV_init          1       0.000       0.000     0.00
elaps:  IterMD            1   27206.949   27206.949    99.62
elaps:  hsparse           1       0.051       0.051     0.00
elaps:  overlap           1       0.984       0.984     0.00
elaps:  IterSCF          46     590.748   27174.424    99.50
elaps:  kinefsm           2       0.510       1.020     0.00
elaps:  nlefsm            2       2.721       5.442     0.02
elaps:  DHSCF            47      17.526     823.702     3.02
elaps:  DHSCF1            1       0.128       0.128     0.00
elaps:  DHSCF2            1       5.873       5.873     0.02
elaps:  REORD           378       0.001       0.547     0.00
elaps:  POISON           48       0.314      15.065     0.06
elaps:  DHSCF3           47      17.131     805.172     2.95
elaps:  rhoofd           47       8.036     377.695     1.38
elaps:  cellXC           47       0.435      20.441     0.07
elaps:  vmat             47       8.290     389.612     1.43
elaps:  MolMec            2       0.000       0.000     0.00
elaps:  diagon           46     573.236   26368.843    96.55
elaps:  c-eigval      10747       0.847    9107.421    33.35
elaps:  c-buildHS     10747       0.021     223.351     0.82
elaps:  cdiag         21373       0.856   18291.754    66.98
elaps:  cdiag1        21373       0.054    1145.744     4.20
elaps:  cdiag2        21373       0.241    5143.314    18.83
elaps:  cdiag3        21373       0.498   10645.586    38.98
elaps:  cdiag4        21373       0.029     623.658     2.28
elaps:  c-eigvec      10626       0.897    9528.355    34.89
elaps:  c-buildD      10626       0.737    7827.377    28.66
elaps:  DHSCF4            1      12.164      12.164     0.04
elaps:  dfscf             1      11.592      11.592     0.04
elaps:  overfsm           1       0.063       0.063     0.00
elaps:  optical           1       0.000       0.000     0.00
  
>> End of run:  23-APR-2016  10:00:22
