Siesta Version:                                        siesta-3.2-pl-3
Architecture  : x86_64-unknown-linux-gnu--unknown
Compiler flags: mpiifort -g -O2 -fPIC -xSSE4.1 -fp-model source -shared-intel 
PARALLEL version

* Running on    8 nodes in parallel
>> Start of run:  26-APR-2016  23:53:12

                           ***********************       
                           *  WELCOME TO SIESTA  *       
                           ***********************       

reinit: Reading from standard input
************************** Dump of input data file ****************************
#(1) General system descriptors
SystemName            GRP_doping    # Descriptive name of the system
SystemLabel           GRP_doping    # Short name for naming files
%include STRUCT.fdf
%include KPT.fdf
%include BASIS.fdf
#%include TS.fdf # for transiesta calculation
#(4) DFT, Grid, SCF
XC.functional         GGA           # LDA or GGA (default = LDA)
XC.authors            PBE           # CA (Ceperley-Aldr) = PZ
                                    #    (Perdew-Zunger) - LDA - Default
                                    # PW92 (Perdew-Wang-92) - LDA
                                    # PBE (Perdew-Burke-Ernzerhof) - GGA
MeshCutoff            200.000000    Ry      # Default: 50.0 Ry ~ 0.444 Bohr
                                    #         100.0 Ry ~ 0.314 Bohr
MaxSCFIterations      500           # Default: 50
DM.MixingWeight       0.05          # Default: 0.25
DM.NumberPulay        10            # Default: 0
DM.PulayOnFile        F             # SystemLabel.P1, SystemLabel.P2
DM.Tolerance          1.d-4         # Default: 1.d-4
DM.UseSaveDM          .true.        # because of the bug
SCFMustConverge       .true.
NeglNonOverlapInt     F             # Default: F
#(5) Eigenvalue problem: order-N or diagonalization
SolutionMethod        Diagon        # or Transiesta
ElectronicTemperature 300.0 K       # Default: 300.0 K
#(6) Molecular dynamics and relaxations
#MD.TypeOfRun          CG            # Type of dynamics:
#MD.VariableCell       F
#MD.NumCGsteps         0           # 0 for single-point / 100 for gopt
#MD.MaxCGDispl         0.2 Bohr      # Default: 0.2 Bohr
#MD.MaxForceTol        0.02 eV/Ang   # Default: 0.04 eV/Ang
#MD.MaxStressTol       1.0 GPa       # Default: 1.0 GPa
# Geometry Constraints
#%block GeometryConstraints
#	position from 1 to 44
#%endblock GeometryConstraints
BandLinesScale   pi/a
%block BandLines
 1   0.00000000  0.00000000  0.00000000
50   0.00000000  0.07809418  0.00000000
50   0.04509075  0.07809242  0.00000000
20   0.00000000  0.00000000  0.00000000
%endblock BandLines
************************** End of input data file *****************************

reinit: -----------------------------------------------------------------------
reinit: System Name: GRP_doping
reinit: -----------------------------------------------------------------------
reinit: System Label: GRP_doping                                                  
reinit: -----------------------------------------------------------------------

initatom: Reading input for the pseudopotentials and atomic orbitals ----------
 Species number:            1  Label: B Atomic number:           5
 Species number:            2  Label: C Atomic number:           6
Ground state valence configuration:   2s02  2p01
Reading pseudopotential information in formatted form from B.psf

Valence configuration for pseudopotential generation:
2s( 2.00) rc: 1.74
2p( 1.00) rc: 1.74
3d( 0.00) rc: 1.74
4f( 0.00) rc: 1.74
Ground state valence configuration:   2s02  2p02
Reading pseudopotential information in formatted form from C.psf

Valence configuration for pseudopotential generation:
2s( 2.00) rc: 1.54
2p( 2.00) rc: 1.54
3d( 0.00) rc: 1.54
4f( 0.00) rc: 1.54
For B, standard SIESTA heuristics set lmxkb to 3
 (one more than the basis l, including polarization orbitals).
Use PS.lmax or PS.KBprojectors blocks to override.
For C, standard SIESTA heuristics set lmxkb to 3
 (one more than the basis l, including polarization orbitals).
Use PS.lmax or PS.KBprojectors blocks to override.

<basis_specs>
===============================================================================
B                    Z=   5    Mass=  10.810        Charge= 0.17977+309
Lmxo=1 Lmxkb= 3    BasisType=split      Semic=F
L=0  Nsemic=0  Cnfigmx=2
          n=1  nzeta=2  polorb=0
            splnorm:   0.15000    
               vcte:    0.0000    
               rinn:    0.0000    
                rcs:    0.0000      0.0000    
            lambdas:    1.0000      1.0000    
L=1  Nsemic=0  Cnfigmx=2
          n=1  nzeta=2  polorb=1
            splnorm:   0.15000    
               vcte:    0.0000    
               rinn:    0.0000    
                rcs:    0.0000      0.0000    
            lambdas:    1.0000      1.0000    
-------------------------------------------------------------------------------
L=0  Nkbl=1  erefs: 0.17977+309
L=1  Nkbl=1  erefs: 0.17977+309
L=2  Nkbl=1  erefs: 0.17977+309
L=3  Nkbl=1  erefs: 0.17977+309
===============================================================================
</basis_specs>

atom: Called for B                     (Z =   5)

read_vps: Pseudopotential generation method:
read_vps: ATM3      Troullier-Martins                       
Total valence charge:    3.00000

read_vps: Pseudopotential includes a core correction:
read_vps: Pseudo-core for xc-correction

xc_check: Exchange-correlation functional:
xc_check: GGA Perdew, Burke & Ernzerhof 1996
V l=0 = -2*Zval/r beyond r=  1.7165
V l=1 = -2*Zval/r beyond r=  1.7165
V l=2 = -2*Zval/r beyond r=  1.7165
V l=3 = -2*Zval/r beyond r=  1.6951
All V_l potentials equal beyond r=  1.7165
This should be close to max(r_c) in ps generation
All pots = -2*Zval/r beyond r=  1.7165

VLOCAL1: 99.0% of the norm of Vloc inside     14.733 Ry
VLOCAL1: 99.9% of the norm of Vloc inside     33.577 Ry
atom: Maximum radius for 4*pi*r*r*local-pseudopot. charge    2.04484
atom: Maximum radius for r*vlocal+2*Zval:    1.75994
GHOST: No ghost state for L =  0
GHOST: No ghost state for L =  1
GHOST: No ghost state for L =  2
GHOST: No ghost state for L =  3

KBgen: Kleinman-Bylander projectors: 
   l= 0   rc=  1.897051   el= -0.693730   Ekb=  4.595746   kbcos=  0.286105
   l= 1   rc=  1.920920   el= -0.265236   Ekb= -2.350715   kbcos= -0.315747
   l= 2   rc=  2.044840   el=  0.002055   Ekb= -0.690767   kbcos= -0.013822
   l= 3   rc=  2.149707   el=  0.003188   Ekb= -0.315358   kbcos= -0.002055

KBgen: Total number of  Kleinman-Bylander projectors:   16
atom: -------------------------------------------------------------------------

atom: SANKEY-TYPE ORBITALS:
atom: Selected multiple-zeta basis: split     

SPLIT: Orbitals with angular momentum L= 0

SPLIT: Basis orbitals for state 2s

SPLIT: PAO cut-off radius determined from an
SPLIT: energy shift=  0.007350 Ry

   izeta = 1
                 lambda =    1.000000
                     rc =    5.422032
                 energy =   -0.686029
                kinetic =    0.576707
    potential(screened) =   -1.262736
       potential(ionic) =   -3.271094

   izeta = 2
                 rmatch =    4.222573
              splitnorm =    0.150000
                 energy =   -0.602132
                kinetic =    0.858975
    potential(screened) =   -1.461107
       potential(ionic) =   -3.582536

SPLIT: Orbitals with angular momentum L= 1

SPLIT: Basis orbitals for state 2p

SPLIT: PAO cut-off radius determined from an
SPLIT: energy shift=  0.007350 Ry

   izeta = 1
                 lambda =    1.000000
                     rc =    6.790259
                 energy =   -0.258578
                kinetic =    1.481412
    potential(screened) =   -1.739989
       potential(ionic) =   -3.657461

   izeta = 2
                 rmatch =    4.608740
              splitnorm =    0.150000
                 energy =   -0.173757
                kinetic =    2.186690
    potential(screened) =   -2.360447
       potential(ionic) =   -4.464260

POLgen: Perturbative polarization orbital with L=  2

POLgen: Polarization orbital for state 2p

   izeta = 1
                     rc =    6.790259
                 energy =    0.684082
                kinetic =    1.471481
    potential(screened) =   -0.787399
       potential(ionic) =   -2.406985
atom: Total number of Sankey-type orbitals: 13

atm_pop: Valence configuration (for local Pseudopot. screening):
 2s( 2.00)                                                            
 2p( 1.00)                                                            
Vna: chval, zval:    3.00000   3.00000

Vna:  Cut-off radius for the neutral-atom potential:   6.790259
comcore: Pseudo-core radius Rcore=  2.122997

atom: _________________________________________________________________________

<basis_specs>
===============================================================================
C                    Z=   6    Mass=  12.010        Charge= 0.17977+309
Lmxo=1 Lmxkb= 3    BasisType=split      Semic=F
L=0  Nsemic=0  Cnfigmx=2
          n=1  nzeta=2  polorb=0
            splnorm:   0.15000    
               vcte:    0.0000    
               rinn:    0.0000    
                rcs:    0.0000      0.0000    
            lambdas:    1.0000      1.0000    
L=1  Nsemic=0  Cnfigmx=2
          n=1  nzeta=2  polorb=1
            splnorm:   0.15000    
               vcte:    0.0000    
               rinn:    0.0000    
                rcs:    0.0000      0.0000    
            lambdas:    1.0000      1.0000    
-------------------------------------------------------------------------------
L=0  Nkbl=1  erefs: 0.17977+309
L=1  Nkbl=1  erefs: 0.17977+309
L=2  Nkbl=1  erefs: 0.17977+309
L=3  Nkbl=1  erefs: 0.17977+309
===============================================================================
</basis_specs>

atom: Called for C                     (Z =   6)

read_vps: Pseudopotential generation method:
read_vps: ATM3      Troullier-Martins                       
Total valence charge:    4.00000

read_vps: Pseudopotential includes a core correction:
read_vps: Pseudo-core for xc-correction

xc_check: Exchange-correlation functional:
xc_check: GGA Perdew, Burke & Ernzerhof 1996
V l=0 = -2*Zval/r beyond r=  1.5227
V l=1 = -2*Zval/r beyond r=  1.5227
V l=2 = -2*Zval/r beyond r=  1.5227
V l=3 = -2*Zval/r beyond r=  1.5038
All V_l potentials equal beyond r=  1.5227
This should be close to max(r_c) in ps generation
All pots = -2*Zval/r beyond r=  1.5227

VLOCAL1: 99.0% of the norm of Vloc inside     18.722 Ry
VLOCAL1: 99.9% of the norm of Vloc inside     42.668 Ry
atom: Maximum radius for 4*pi*r*r*local-pseudopot. charge    1.83678
atom: Maximum radius for r*vlocal+2*Zval:    1.58088
GHOST: No ghost state for L =  0
GHOST: No ghost state for L =  1
GHOST: No ghost state for L =  2
GHOST: No ghost state for L =  3

KBgen: Kleinman-Bylander projectors: 
   l= 0   rc=  1.704034   el= -1.009801   Ekb=  5.335044   kbcos=  0.316824
   l= 1   rc=  1.704034   el= -0.388707   Ekb= -3.785862   kbcos= -0.366464
   l= 2   rc=  1.791422   el=  0.001971   Ekb= -0.970471   kbcos= -0.009212
   l= 3   rc=  1.859892   el=  0.003065   Ekb= -0.399525   kbcos= -0.001223

KBgen: Total number of  Kleinman-Bylander projectors:   16
atom: -------------------------------------------------------------------------

atom: SANKEY-TYPE ORBITALS:
atom: Selected multiple-zeta basis: split     

SPLIT: Orbitals with angular momentum L= 0

SPLIT: Basis orbitals for state 2s

SPLIT: PAO cut-off radius determined from an
SPLIT: energy shift=  0.007350 Ry

   izeta = 1
                 lambda =    1.000000
                     rc =    4.632753
                 energy =   -1.002270
                kinetic =    0.855760
    potential(screened) =   -1.858031
       potential(ionic) =   -5.417575

   izeta = 2
                 rmatch =    3.431921
              splitnorm =    0.150000
                 energy =   -0.867111
                kinetic =    1.300804
    potential(screened) =   -2.167915
       potential(ionic) =   -5.962684

SPLIT: Orbitals with angular momentum L= 1

SPLIT: Basis orbitals for state 2p

SPLIT: PAO cut-off radius determined from an
SPLIT: energy shift=  0.007350 Ry

   izeta = 1
                 lambda =    1.000000
                     rc =    5.658549
                 energy =   -0.381140
                kinetic =    2.399701
    potential(screened) =   -2.780841
       potential(ionic) =   -6.206085

   izeta = 2
                 rmatch =    3.653288
              splitnorm =    0.150000
                 energy =   -0.249149
                kinetic =    3.542762
    potential(screened) =   -3.791911
       potential(ionic) =   -7.581078

POLgen: Perturbative polarization orbital with L=  2

POLgen: Polarization orbital for state 2p

   izeta = 1
                     rc =    5.658549
                 energy =    1.109913
                kinetic =    2.304789
    potential(screened) =   -1.194876
       potential(ionic) =   -4.013592
atom: Total number of Sankey-type orbitals: 13

atm_pop: Valence configuration (for local Pseudopot. screening):
 2s( 2.00)                                                            
 2p( 2.00)                                                            
Vna: chval, zval:    4.00000   4.00000

Vna:  Cut-off radius for the neutral-atom potential:   5.658549
comcore: Pseudo-core radius Rcore=  1.791422

atom: _________________________________________________________________________

prinput: Basis input ----------------------------------------------------------

PAO.BasisType split     

%block ChemicalSpeciesLabel
    1    5 B                       # Species index, atomic number, species label
    2    6 C                       # Species index, atomic number, species label
%endblock ChemicalSpeciesLabel

%block PAO.Basis                 # Define Basis set
B                     2                    # Species label, number of l-shells
 n=2   0   2                         # n, l, Nzeta 
   5.422      4.223   
   1.000      1.000   
 n=2   1   2 P   1                   # n, l, Nzeta, Polarization, NzetaPol
   6.790      4.609   
   1.000      1.000   
C                     2                    # Species label, number of l-shells
 n=2   0   2                         # n, l, Nzeta 
   4.633      3.432   
   1.000      1.000   
 n=2   1   2 P   1                   # n, l, Nzeta, Polarization, NzetaPol
   5.659      3.653   
   1.000      1.000   
%endblock PAO.Basis

prinput: ----------------------------------------------------------------------

coor:   Atomic-coordinates input format  =     Fractional

siesta: Atomic coordinates (Bohr) and species
siesta:     -2.35420  38.89134   0.00000  1        1
siesta:     -4.68258  34.85847   0.00000  1        2
siesta:     -4.68258  37.54693   0.00000  1        3
siesta:      9.28770  21.41544   0.00000  1        4
siesta:      6.95932  22.75985   0.00000  1        5
siesta:     -0.02582  21.41544   0.00000  1        6
siesta:      2.30256  22.75985   0.00000  1        7
siesta:     -4.68258  18.72698   0.00000  1        8
siesta:     -4.68258  21.41544   0.00000  1        9
siesta:     -2.35420  22.75985   0.00000  1       10
siesta:     -2.35420  25.44831   0.00000  1       11
siesta:     -7.01096  25.44831   0.00000  1       12
siesta:    -11.66772  22.75985   0.00000  1       13
siesta:    -11.66772  25.44831   0.00000  1       14
siesta:     -9.33934  26.79272   0.00000  1       15
siesta:     -9.33934  29.48119   0.00000  1       16
siesta:     -0.02582  26.79272   0.00000  1       17
siesta:     -4.68258  26.79272   0.00000  1       18
siesta:     -7.01096  30.82560   0.00000  1       19
siesta:     -7.01096  33.51406   0.00000  1       20
siesta:     -0.02582   2.59549   0.00000  2       21
siesta:     -0.02582   5.28395   0.00000  2       22
siesta:     -2.35420  41.57980   0.00000  2       23
siesta:      2.30256  38.89134   0.00000  2       24
siesta:      2.30256  41.57980   0.00000  2       25
siesta:      4.63094  34.85847   0.00000  2       26
siesta:      4.63094  37.54693   0.00000  2       27
siesta:      6.95932  30.82560   0.00000  2       28
siesta:      6.95932  33.51406   0.00000  2       29
siesta:      9.28770  26.79272   0.00000  2       30
siesta:      9.28770  29.48119   0.00000  2       31
siesta:      2.30256   6.62836   0.00000  2       32
siesta:      2.30256   9.31683   0.00000  2       33
siesta:      4.63094  10.66124   0.00000  2       34
siesta:      4.63094  13.34970   0.00000  2       35
siesta:      6.95932  14.69411   0.00000  2       36
siesta:      6.95932  17.38257   0.00000  2       37
siesta:      9.28770  18.72698   0.00000  2       38
siesta:     11.61608  22.75985   0.00000  2       39
siesta:     11.61608  25.44831   0.00000  2       40
siesta:     -2.35420   6.62836   0.00000  2       41
siesta:     -2.35420   9.31683   0.00000  2       42
siesta:     -0.02582  10.66124   0.00000  2       43
siesta:     -0.02582  13.34970   0.00000  2       44
siesta:      2.30256  14.69411   0.00000  2       45
siesta:      2.30256  17.38257   0.00000  2       46
siesta:      4.63094  18.72698   0.00000  2       47
siesta:      4.63094  21.41544   0.00000  2       48
siesta:      6.95932  25.44831   0.00000  2       49
siesta:     -4.68258  10.66124   0.00000  2       50
siesta:     -4.68258  13.34970   0.00000  2       51
siesta:     -2.35420  14.69411   0.00000  2       52
siesta:     -2.35420  17.38257   0.00000  2       53
siesta:     -0.02582  18.72698   0.00000  2       54
siesta:      2.30256  25.44831   0.00000  2       55
siesta:     -7.01096  14.69411   0.00000  2       56
siesta:     -7.01096  17.38257   0.00000  2       57
siesta:     -9.33934  18.72698   0.00000  2       58
siesta:     -9.33934  21.41544   0.00000  2       59
siesta:     -7.01096  22.75985   0.00000  2       60
siesta:      4.63094  26.79272   0.00000  2       61
siesta:      4.63094  29.48119   0.00000  2       62
siesta:     -0.02582  29.48119   0.00000  2       63
siesta:     -4.68258  29.48119   0.00000  2       64
siesta:      2.30256  30.82560   0.00000  2       65
siesta:      2.30256  33.51406   0.00000  2       66
siesta:     -2.35420  30.82560   0.00000  2       67
siesta:     -2.35420  33.51406   0.00000  2       68
siesta:     -0.02582  34.85847   0.00000  2       69
siesta:     -0.02582  37.54693   0.00000  2       70
siesta:     -0.02582  42.92421   0.00000  2       71
siesta:     -0.02582  45.61267   0.00000  2       72

siesta: System type = slab      

initatomlists: Number of atoms, orbitals, and projectors:     72   936  1152

siesta: ******************** Simulation parameters ****************************
siesta:
siesta: The following are some of the parameters of the simulation.
siesta: A complete list of the parameters used, including default values,
siesta: can be found in file out.fdf
siesta:
redata: Non-Collinear-spin run           =     F
redata: SpinPolarized (Up/Down) run      =     F
redata: Number of spin components        =     1
redata: Long output                      =     F
redata: Number of Atomic Species         =        2
redata: Charge density info will appear in .RHO file
redata: Write Mulliken Pop.              =     NO
redata: Mesh Cutoff                      =   200.0000  Ry
redata: Net charge of the system         =     0.0000 |e|
redata: Max. number of SCF Iter          =      500
redata: SCF convergence failure will abort job
redata: Performing Pulay mixing using    =    10 iterations
redata: Mix DM in first SCF step ?       =     F
redata: Write Pulay info on disk?        =     F
redata: Discard 1st Pulay DM after  kick =     F
redata: New DM Mixing Weight             =     0.0500
redata: New DM Occupancy tolerance       = 0.000000000001
redata: No kicks to SCF
redata: DM Mixing Weight for Kicks       =     0.5000
redata: DM Tolerance for SCF             =     0.000100
redata: Require Energy convergence for SCF =     F
redata: DM Energy tolerance for SCF      =     0.000100 eV
redata: Require Harris convergence for SCF =     F
redata: DM Harris energy tolerance for SCF =     0.000100 eV
redata: Using Saved Data (generic)   =     F
redata: Use continuation files for DM    =     T
redata: Neglect nonoverlap interactions  =     F
redata: Method of Calculation            =     Diagonalization
redata: Divide and Conquer               =     T
redata: Electronic Temperature           =     0.0019  Ry
redata: Fix the spin of the system       =     F
redata: Dynamics option                  =     Verlet MD run
redata: Initial MD time step             =        1
redata:   Final MD time step             =        1
redata: Length of MD time step           =     1.0000  fs
redata: Initial Temperature of MD run    =     0.0000  K
redata: Perform a MD quench              =     F
redata: ***********************************************************************
Total number of electrons:   268.000000
Total ionic charge:   268.000000

* ProcessorY, Blocksize:    2  24

k-point displ. along   1 input, could be:     0.50    0.00
k-point displ. along   2 input, could be:     0.50    0.00
 Kpoints in:          231 . Kpoints trimmed:          231

siesta: k-grid: Number of k-points =   231
siesta: k-grid: Cutoff (effective) =     5.000 Ang
siesta: k-grid: Supercell and displacements
siesta: k-grid:   21   0   0      0.500
siesta: k-grid:    0  21   0      0.500
siesta: k-grid:    0   0   1      0.000
Naive supercell factors:     2    2    2

superc: Internal auxiliary supercell:     2 x     2 x     2  =       8
superc: Number of atoms, orbitals, and projectors:    576   7488   9216

* Maximum dynamic memory allocated =     4 MB

siesta:                 ==============================
                            Begin MD step =      1
                        ==============================

superc: Internal auxiliary supercell:     2 x     2 x     2  =       8
superc: Number of atoms, orbitals, and projectors:    576   7488   9216

outcell: Unit cell vectors (Ang):
       12.804619    7.392750    0.000000
        0.000000   14.785500    0.000000
        0.000000    0.000000   10.000000

outcell: Cell vector modules (Ang)   :   14.785500   14.785500   10.000000
outcell: Cell angles (23,13,12) (deg):     90.0000     90.0000     60.0000
outcell: Cell volume (Ang**3)        :   1893.2269
New_DM. Step:     1
Initializing Density Matrix...

InitMesh: MESH =   120 x   120 x    90 =     1296000
InitMesh: Mesh cutoff (required, used) =   200.000   223.865 Ry

* Maximum dynamic memory allocated =   226 MB

stepf: Fermi-Dirac step function

siesta: Program's energy decomposition (eV):
siesta: Ebs     =     -5567.850208
siesta: Eions   =     15841.876847
siesta: Ena     =      4255.326220
siesta: Ekin    =      5323.417823
siesta: Enl     =       803.838253
siesta: DEna    =        -0.000008
siesta: DUscf   =         0.000000
siesta: DUext   =         0.000000
siesta: Exc     =     -4208.303253
siesta: eta*DQ  =         0.000000
siesta: Emadel  =         0.000000
siesta: Emeta   =         0.000000
siesta: Emolmec =         0.000000
siesta: Ekinion =         0.000000
siesta: Eharris =     -9375.212657
siesta: Etot    =     -9667.597812
siesta: FreeEng =     -9667.597812

siesta: iscf   Eharris(eV)      E_KS(eV)   FreeEng(eV)   dDmax  Ef(eV)
siesta:    1    -9375.2127    -9667.5978    -9667.5978  6.7628 -8.4374
timer: Routine,Calls,Time,% = IterSCF        1    3501.757  99.70
elaps: Routine,Calls,Wall,% = IterSCF        1     438.563  99.70
siesta:    2   -13127.8956    -8706.1746    -8706.2396 20.8377 -2.2172
siesta:    3    -9297.3464    -9527.9677    -9528.0136  3.5712 -6.6192
siesta:    4    -9274.1129    -9394.8949    -9394.9126  1.6032 -5.5687
siesta:    5    -9243.9304    -9292.1654    -9292.1876  1.2123 -5.0890
siesta:    6    -9223.8879    -9266.0977    -9266.1367  0.7105 -4.9409
siesta:    7    -9221.1299    -9258.9569    -9259.0348  0.6949 -4.9146
siesta:    8    -9216.3649    -9243.4424    -9243.5235  0.5866 -5.0264
siesta:    9    -9215.1636    -9229.7139    -9229.7605  0.4294 -5.0928
siesta:   10    -9215.0017    -9213.7095    -9213.7451  0.3220 -5.0630
siesta:   11    -9214.4881    -9205.1952    -9205.2527  0.2286 -5.0023
siesta:   12    -9214.2323    -9197.0993    -9197.1676  0.5199 -4.9308
siesta:   13    -9214.3679    -9193.5859    -9193.6672  0.2192 -4.9344
siesta:   14    -9213.6242    -9196.9327    -9197.0078  0.2176 -4.8869
siesta:   15    -9213.5011    -9201.7878    -9201.8774  0.0667 -4.9183
siesta:   16    -9213.3673    -9205.3507    -9205.4287  0.0530 -4.9721
siesta:   17    -9213.3345    -9206.6955    -9206.7722  0.0423 -4.9632
siesta:   18    -9213.2981    -9208.8687    -9208.9471  0.0261 -4.9660
siesta:   19    -9213.2933    -9209.7447    -9209.8266  0.0338 -4.9607
siesta:   20    -9213.2885    -9210.5710    -9210.6547  0.0112 -4.9604
siesta:   21    -9213.2862    -9210.9805    -9211.0635  0.0093 -4.9577
siesta:   22    -9213.2867    -9211.6540    -9211.7375  0.0158 -4.9587
siesta:   23    -9213.2851    -9212.4536    -9212.5360  0.0070 -4.9559
siesta:   24    -9213.2856    -9212.7993    -9212.8830  0.0059 -4.9558
siesta:   25    -9213.2847    -9212.9799    -9213.0629  0.0025 -4.9537
siesta:   26    -9213.2843    -9212.9635    -9213.0469  0.0018 -4.9537
siesta:   27    -9213.2842    -9212.9895    -9213.0731  0.0021 -4.9539
siesta:   28    -9213.2840    -9213.1585    -9213.2422  0.0009 -4.9546
siesta:   29    -9213.2841    -9213.2238    -9213.3076  0.0009 -4.9550
siesta:   30    -9213.2841    -9213.2583    -9213.3420  0.0004 -4.9553
siesta:   31    -9213.2841    -9213.2766    -9213.3603  0.0004 -4.9554
siesta:   32    -9213.2841    -9213.2905    -9213.3742  0.0004 -4.9554
siesta:   33    -9213.2841    -9213.2942    -9213.3779  0.0003 -4.9554
siesta:   34    -9213.2841    -9213.2965    -9213.3801  0.0002 -4.9553
siesta:   35    -9213.2841    -9213.2970    -9213.3807  0.0001 -4.9553
siesta:   36    -9213.2841    -9213.2922    -9213.3758  0.0000 -4.9553

siesta: E_KS(eV) =            -9213.2902

siesta: E_KS - E_eggbox =     -9213.2902

siesta: Atomic forces (eV/Ang):
----------------------------------------
   Tot   -0.156203   -0.116697    0.000000
----------------------------------------
   Max  564.703739
   Res  156.962062    sqrt( Sum f_i^2 / 3N )
----------------------------------------
   Max  564.703739    constrained

Stress-tensor-Voigt (kbar):     -795.58    -2885.74       -0.67      -10.65        0.00        0.00
(Free)E + p*V (eV/cell)    -7763.1071
Target enthalpy (eV/cell)    -9213.3739

siesta: Stress tensor (static) (eV/Ang**3):
        -0.496556   -0.006645    0.000000
        -0.006646   -1.801115    0.000000
         0.000000    0.000000   -0.000416

siesta: Pressure (static):       1227.32712917  kBar

siesta: Stress tensor (total) (eV/Ang**3):
        -0.496556   -0.006645    0.000000
        -0.006646   -1.801115    0.000000
         0.000000    0.000000   -0.000416

siesta: Pressure (total):       1227.32712917  kBar

siesta: Temp_ion =       0.000 K

* Maximum dynamic memory allocated =   242 MB
Computing bands...

siesta: Program's energy decomposition (eV):
siesta: Ebs     =     -4197.109643
siesta: Eions   =     15841.876847
siesta: Ena     =      4255.326220
siesta: Ekin    =      8273.245261
siesta: Enl     =      -810.212725
siesta: DEna    =      -814.956721
siesta: DUscf   =       109.825224
siesta: DUext   =         0.000000
siesta: Exc     =     -4384.640654
siesta: eta*DQ  =         0.000000
siesta: Emadel  =         0.000000
siesta: Emeta   =         0.000000
siesta: Emolmec =         0.000000
siesta: Ekinion =         0.000000
siesta: Eharris =     -9213.284095
siesta: Etot    =     -9213.290243
siesta: FreeEng =     -9213.373915

siesta: Final energy (eV):
siesta:  Band Struct. =   -4197.109643
siesta:       Kinetic =    8273.245261
siesta:       Hartree =   27559.257607
siesta:    Ext. field =       0.000000
siesta:   Exch.-corr. =   -4384.640654
siesta:  Ion-electron =  -63119.423999
siesta:       Ion-ion =   22458.271542
siesta:       Ekinion =       0.000000
siesta:         Total =   -9213.290243

siesta: Atomic forces (eV/Ang):
siesta:      1    1.875900  105.065365    0.000000
siesta:      2  -17.296600    0.538764    0.000000
siesta:      3  -19.423450 -391.139485    0.000000
siesta:      4    8.242017   -4.489147    0.000000
siesta:      5   -4.511580    1.936317    0.000000
siesta:      6   -0.887960   -5.236515    0.000000
siesta:      7    3.665219    1.849451    0.000000
siesta:      8    1.909585   -4.182741    0.000000
siesta:      9   -4.627369    2.484564    0.000000
siesta:     10    3.382297    0.506306    0.000000
siesta:     11   -2.535423   -1.500854    0.000000
siesta:     12   -0.216157   -5.320539    0.000000
siesta:     13   -2.298310   -4.157024    0.000000
siesta:     14   -5.637215    3.883576    0.000000
siesta:     15   -4.579671    1.769934    0.000000
siesta:     16   -5.351951    1.276754    0.000000
siesta:     17    3.772108    1.260804    0.000000
siesta:     18    1.292779    6.686847    0.000000
siesta:     19    1.092773    1.178979    0.000000
siesta:     20   -3.162590    4.160680    0.000000
siesta:     21    0.830424  551.460916    0.000000
siesta:     22    0.115308 -128.330810    0.000000
siesta:     23  -18.591066 -548.410199    0.000000
siesta:     24   -3.069019  125.655398    0.000000
siesta:     25   12.050183 -546.198519    0.000000
siesta:     26   26.868048    4.128545    0.000000
siesta:     27   32.946561 -548.946458    0.000000
siesta:     28    1.516065    0.522665    0.000000
siesta:     29   -2.302428    1.978249    0.000000
siesta:     30    2.005168    2.472332    0.000000
siesta:     31   -0.697593   -0.074466    0.000000
siesta:     32    9.377091  545.634653    0.000000
siesta:     33    0.289244 -124.801457    0.000000
siesta:     34   33.278834  548.214532    0.000000
siesta:     35   26.427143   -4.401936    0.000000
siesta:     36   -2.352824   -2.276879    0.000000
siesta:     37    2.735496   -0.998068    0.000000
siesta:     38   -3.121827   -3.578177    0.000000
siesta:     39    2.790404    8.825739    0.000000
siesta:     40    0.059097   -6.481311    0.000000
siesta:     41   -9.643208  546.742487    0.000000
siesta:     42  -12.281315 -132.046321    0.000000
siesta:     43   17.120149  550.718626    0.000000
siesta:     44   -2.582456 -129.855482    0.000000
siesta:     45   27.560739  556.531842    0.000000
siesta:     46   21.617425   -5.584061    0.000000
siesta:     47   -1.562310    2.187132    0.000000
siesta:     48    0.040766   -3.856812    0.000000
siesta:     49   -0.093745    3.179257    0.000000
siesta:     50  -34.933026  398.964465    0.000000
siesta:     51  -23.112191    0.134056    0.000000
siesta:     52  -22.823063  564.703739    0.000000
siesta:     53  -19.348564   -6.820069    0.000000
siesta:     54   -0.473086  562.063852    0.000000
siesta:     55    2.185418    2.808866    0.000000
siesta:     56    3.251519   -2.349357    0.000000
siesta:     57   -6.154786   -2.302230    0.000000
siesta:     58    1.128067    0.268281    0.000000
siesta:     59   -0.105624   -3.448096    0.000000
siesta:     60   -1.237600   -1.768900    0.000000
siesta:     61    0.315534    0.123204    0.000000
siesta:     62   -0.948692   -1.506811    0.000000
siesta:     63    0.095776 -562.191756    0.000000
siesta:     64    4.101620    0.477268    0.000000
siesta:     65   21.575894    4.759653    0.000000
siesta:     66   26.894727 -555.486302    0.000000
siesta:     67  -21.422844    5.520198    0.000000
siesta:     68  -30.742011 -551.945028    0.000000
siesta:     69    0.361144  128.230040    0.000000
siesta:     70  -14.993051 -535.557337    0.000000
siesta:     71   -1.864168  128.187691    0.000000
siesta:     72    2.058049 -551.965578    0.000000
siesta: ----------------------------------------
siesta:    Tot   -0.156203   -0.116697    0.000000

siesta: Stress tensor (static) (eV/Ang**3):
siesta:    -0.496556   -0.006645    0.000000
siesta:    -0.006646   -1.801115    0.000000
siesta:     0.000000    0.000000   -0.000416

siesta: Cell volume =       1893.226884 Ang**3

siesta: Pressure (static):
siesta:                Solid            Molecule  Units
siesta:           0.00834303          0.12180385  Ry/Bohr**3
siesta:           0.76602906         11.18361560  eV/Ang**3
siesta:        1227.32712917      17918.32127500  kBar
(Free)E+ p_basis*V_orbitals  =       -9176.317230
(Free)Eharris+ p_basis*V_orbitals  =       -9176.309152

siesta: Electric dipole (a.u.)  =    0.000000    0.000000    0.000000
siesta: Electric dipole (Debye) =    0.000000    0.000000    0.000000

* Maximum dynamic memory allocated : Node    0 =   242 MB
* Maximum dynamic memory allocated : Node    1 =    85 MB
* Maximum dynamic memory allocated : Node    2 =    87 MB
* Maximum dynamic memory allocated : Node    3 =   230 MB
* Maximum dynamic memory allocated : Node    4 =   226 MB
* Maximum dynamic memory allocated : Node    5 =    83 MB
* Maximum dynamic memory allocated : Node    6 =    85 MB
* Maximum dynamic memory allocated : Node    7 =   207 MB

* Maximum memory occured during matrixMtoO                    

timer: CPU execution times:
timer:  Routine       Calls   Time/call    Tot.time        %
timer:  siesta            1  124736.791  124736.791   100.00
timer:  Setup             1       2.683       2.683     0.00
timer:  bands             3     244.201     732.604     0.59
timer:  writewave         1       0.022       0.022     0.00
timer:  KSV_init          1       0.000       0.000     0.00
timer:  IterMD            1  123996.303  123996.303    99.41
timer:  hsparse           1       0.517       0.517     0.00
timer:  overlap           1       7.205       7.205     0.01
timer:  IterSCF          36    3438.548  123787.726    99.24
timer:  kinefsm           2       3.746       7.491     0.01
timer:  nlefsm            2      20.116      40.232     0.03
timer:  DHSCF            37     107.031    3960.149     3.17
timer:  DHSCF1            1       0.990       0.990     0.00
timer:  DHSCF2            1      42.541      42.541     0.03
timer:  REORD           298       0.005       1.519     0.00
timer:  POISON           38       0.880      33.433     0.03
timer:  DHSCF3           37     104.736    3875.220     3.11
timer:  rhoofd           37      23.505     869.702     0.70
timer:  cellXC           37       3.271     121.010     0.10
timer:  vmat             37      49.639    1836.630     1.47
timer:  MolMec            2       0.000       0.000     0.00
timer:  diagon           36    3330.948  119914.121    96.13
timer:  c-eigval       8437       6.035   50914.249    40.82
timer:  c-buildHS      8437       0.052     442.679     0.35
timer:  cdiag         16753       6.177  103481.120    82.96
timer:  cdiag1        16753       0.386    6470.013     5.19
timer:  cdiag2        16753       1.771   29667.077    23.78
timer:  cdiag3        16753       3.730   62492.339    50.10
timer:  cdiag4        16753       0.158    2648.828     2.12
timer:  c-eigvec       8316       6.419   53383.354    42.80
timer:  c-buildD       8316       1.961   16306.062    13.07
timer:  DHSCF4            1      40.699      40.699     0.03
timer:  dfscf             1      37.915      37.915     0.03
timer:  overfsm           1       0.458       0.458     0.00
timer:  optical           1       4.541       4.541     0.00
  

elaps: ELAPSED times:
elaps:  Routine       Calls   Time/call    Tot.time        %
elaps:  siesta            1   15621.302   15621.302   100.00
elaps:  Setup             1       0.337       0.337     0.00
elaps:  bands             3      30.599      91.798     0.59
elaps:  writewave         1       0.002       0.002     0.00
elaps:  KSV_init          1       0.000       0.000     0.00
elaps:  IterMD            1   15528.568   15528.568    99.41
elaps:  hsparse           1       0.068       0.068     0.00
elaps:  overlap           1       0.905       0.905     0.01
elaps:  IterSCF          36     430.624   15502.450    99.24
elaps:  kinefsm           2       0.469       0.939     0.01
elaps:  nlefsm            2       2.548       5.095     0.03
elaps:  DHSCF            37      13.540     500.990     3.21
elaps:  DHSCF1            1       0.127       0.127     0.00
elaps:  DHSCF2            1       5.326       5.326     0.03
elaps:  REORD           298       0.001       0.201     0.00
elaps:  POISON           38       0.111       4.217     0.03
elaps:  DHSCF3           37      13.117     485.334     3.11
elaps:  rhoofd           37       6.357     235.205     1.51
elaps:  cellXC           37       0.409      15.149     0.10
elaps:  vmat             37       6.217     230.022     1.47
elaps:  MolMec            2       0.000       0.000     0.00
elaps:  diagon           36     417.155   15017.569    96.14
elaps:  c-eigval       8437       0.756    6376.075    40.82
elaps:  c-buildHS      8437       0.007      59.476     0.38
elaps:  cdiag         16753       0.770   12903.344    82.60
elaps:  cdiag1        16753       0.048     810.553     5.19
elaps:  cdiag2        16753       0.222    3716.144    23.79
elaps:  cdiag3        16753       0.468    7836.755    50.17
elaps:  cdiag4        16753       0.020     330.557     2.12
elaps:  c-eigvec       8316       0.798    6635.517    42.48
elaps:  c-buildD       8316       0.251    2090.382    13.38
elaps:  DHSCF4            1      10.117      10.117     0.06
elaps:  dfscf             1       9.560       9.560     0.06
elaps:  overfsm           1       0.056       0.056     0.00
elaps:  optical           1       0.000       0.000     0.00
  
>> End of run:  27-APR-2016   4:13:34
