Siesta Version:                                        siesta-3.2-pl-3
Architecture  : x86_64-unknown-linux-gnu--unknown
Compiler flags: mpiifort -g -O2 -fPIC -xSSE4.1 -fp-model source -shared-intel 
PARALLEL version

* Running on   12 nodes in parallel
>> Start of run:   3-MAY-2016   9:09:45

                           ***********************       
                           *  WELCOME TO SIESTA  *       
                           ***********************       

reinit: Reading from standard input
************************** Dump of input data file ****************************
#(1) General system descriptors
SystemName            GRP_doping    # Descriptive name of the system
SystemLabel           GRP_doping    # Short name for naming files
%include STRUCT.fdf
%include KPT.fdf
%include BASIS.fdf
#%include TS.fdf # for transiesta calculation
#(4) DFT, Grid, SCF
XC.functional         GGA           # LDA or GGA (default = LDA)
XC.authors            PBE           # CA (Ceperley-Aldr) = PZ
                                    #    (Perdew-Zunger) - LDA - Default
                                    # PW92 (Perdew-Wang-92) - LDA
                                    # PBE (Perdew-Burke-Ernzerhof) - GGA
MeshCutoff            200.000000    Ry      # Default: 50.0 Ry ~ 0.444 Bohr
                                    #         100.0 Ry ~ 0.314 Bohr
MaxSCFIterations      500           # Default: 50
DM.MixingWeight       0.05          # Default: 0.25
DM.NumberPulay        10            # Default: 0
DM.PulayOnFile        F             # SystemLabel.P1, SystemLabel.P2
DM.Tolerance          1.d-4         # Default: 1.d-4
DM.UseSaveDM          .true.        # because of the bug
SCFMustConverge       .true.
NeglNonOverlapInt     F             # Default: F
#(5) Eigenvalue problem: order-N or diagonalization
SolutionMethod        Diagon        # or Transiesta
ElectronicTemperature 300.0 K       # Default: 300.0 K
#(6) Molecular dynamics and relaxations
#MD.TypeOfRun          CG            # Type of dynamics:
#MD.VariableCell       F
#MD.NumCGsteps         0           # 0 for single-point / 100 for gopt
#MD.MaxCGDispl         0.2 Bohr      # Default: 0.2 Bohr
#MD.MaxForceTol        0.02 eV/Ang   # Default: 0.04 eV/Ang
#MD.MaxStressTol       1.0 GPa       # Default: 1.0 GPa
# Geometry Constraints
#%block GeometryConstraints
#	position from 1 to 44
#%endblock GeometryConstraints
BandLinesScale   pi/a
%block BandLines
 1   0.00000000  0.00000000  0.00000000
50   0.00000000  0.07809418  0.00000000
50   0.04509075  0.07809242  0.00000000
20   0.00000000  0.00000000  0.00000000
%endblock BandLines
************************** End of input data file *****************************

reinit: -----------------------------------------------------------------------
reinit: System Name: GRP_doping
reinit: -----------------------------------------------------------------------
reinit: System Label: GRP_doping                                                  
reinit: -----------------------------------------------------------------------

initatom: Reading input for the pseudopotentials and atomic orbitals ----------
 Species number:            1  Label: B Atomic number:           5
 Species number:            2  Label: C Atomic number:           6
Ground state valence configuration:   2s02  2p01
Reading pseudopotential information in formatted form from B.psf

Valence configuration for pseudopotential generation:
2s( 2.00) rc: 1.74
2p( 1.00) rc: 1.74
3d( 0.00) rc: 1.74
4f( 0.00) rc: 1.74
Ground state valence configuration:   2s02  2p02
Reading pseudopotential information in formatted form from C.psf

Valence configuration for pseudopotential generation:
2s( 2.00) rc: 1.54
2p( 2.00) rc: 1.54
3d( 0.00) rc: 1.54
4f( 0.00) rc: 1.54
For B, standard SIESTA heuristics set lmxkb to 3
 (one more than the basis l, including polarization orbitals).
Use PS.lmax or PS.KBprojectors blocks to override.
For C, standard SIESTA heuristics set lmxkb to 3
 (one more than the basis l, including polarization orbitals).
Use PS.lmax or PS.KBprojectors blocks to override.

<basis_specs>
===============================================================================
B                    Z=   5    Mass=  10.810        Charge= 0.17977+309
Lmxo=1 Lmxkb= 3    BasisType=split      Semic=F
L=0  Nsemic=0  Cnfigmx=2
          n=1  nzeta=2  polorb=0
            splnorm:   0.15000    
               vcte:    0.0000    
               rinn:    0.0000    
                rcs:    0.0000      0.0000    
            lambdas:    1.0000      1.0000    
L=1  Nsemic=0  Cnfigmx=2
          n=1  nzeta=2  polorb=1
            splnorm:   0.15000    
               vcte:    0.0000    
               rinn:    0.0000    
                rcs:    0.0000      0.0000    
            lambdas:    1.0000      1.0000    
-------------------------------------------------------------------------------
L=0  Nkbl=1  erefs: 0.17977+309
L=1  Nkbl=1  erefs: 0.17977+309
L=2  Nkbl=1  erefs: 0.17977+309
L=3  Nkbl=1  erefs: 0.17977+309
===============================================================================
</basis_specs>

atom: Called for B                     (Z =   5)

read_vps: Pseudopotential generation method:
read_vps: ATM3      Troullier-Martins                       
Total valence charge:    3.00000

read_vps: Pseudopotential includes a core correction:
read_vps: Pseudo-core for xc-correction

xc_check: Exchange-correlation functional:
xc_check: GGA Perdew, Burke & Ernzerhof 1996
V l=0 = -2*Zval/r beyond r=  1.7165
V l=1 = -2*Zval/r beyond r=  1.7165
V l=2 = -2*Zval/r beyond r=  1.7165
V l=3 = -2*Zval/r beyond r=  1.6951
All V_l potentials equal beyond r=  1.7165
This should be close to max(r_c) in ps generation
All pots = -2*Zval/r beyond r=  1.7165

VLOCAL1: 99.0% of the norm of Vloc inside     14.733 Ry
VLOCAL1: 99.9% of the norm of Vloc inside     33.577 Ry
atom: Maximum radius for 4*pi*r*r*local-pseudopot. charge    2.04484
atom: Maximum radius for r*vlocal+2*Zval:    1.75994
GHOST: No ghost state for L =  0
GHOST: No ghost state for L =  1
GHOST: No ghost state for L =  2
GHOST: No ghost state for L =  3

KBgen: Kleinman-Bylander projectors: 
   l= 0   rc=  1.897051   el= -0.693730   Ekb=  4.595746   kbcos=  0.286105
   l= 1   rc=  1.920920   el= -0.265236   Ekb= -2.350715   kbcos= -0.315747
   l= 2   rc=  2.044840   el=  0.002055   Ekb= -0.690767   kbcos= -0.013822
   l= 3   rc=  2.149707   el=  0.003188   Ekb= -0.315358   kbcos= -0.002055

KBgen: Total number of  Kleinman-Bylander projectors:   16
atom: -------------------------------------------------------------------------

atom: SANKEY-TYPE ORBITALS:
atom: Selected multiple-zeta basis: split     

SPLIT: Orbitals with angular momentum L= 0

SPLIT: Basis orbitals for state 2s

SPLIT: PAO cut-off radius determined from an
SPLIT: energy shift=  0.007350 Ry

   izeta = 1
                 lambda =    1.000000
                     rc =    5.422032
                 energy =   -0.686029
                kinetic =    0.576707
    potential(screened) =   -1.262736
       potential(ionic) =   -3.271094

   izeta = 2
                 rmatch =    4.222573
              splitnorm =    0.150000
                 energy =   -0.602132
                kinetic =    0.858975
    potential(screened) =   -1.461107
       potential(ionic) =   -3.582536

SPLIT: Orbitals with angular momentum L= 1

SPLIT: Basis orbitals for state 2p

SPLIT: PAO cut-off radius determined from an
SPLIT: energy shift=  0.007350 Ry

   izeta = 1
                 lambda =    1.000000
                     rc =    6.790259
                 energy =   -0.258578
                kinetic =    1.481412
    potential(screened) =   -1.739989
       potential(ionic) =   -3.657461

   izeta = 2
                 rmatch =    4.608740
              splitnorm =    0.150000
                 energy =   -0.173757
                kinetic =    2.186690
    potential(screened) =   -2.360447
       potential(ionic) =   -4.464260

POLgen: Perturbative polarization orbital with L=  2

POLgen: Polarization orbital for state 2p

   izeta = 1
                     rc =    6.790259
                 energy =    0.684082
                kinetic =    1.471481
    potential(screened) =   -0.787399
       potential(ionic) =   -2.406985
atom: Total number of Sankey-type orbitals: 13

atm_pop: Valence configuration (for local Pseudopot. screening):
 2s( 2.00)                                                            
 2p( 1.00)                                                            
Vna: chval, zval:    3.00000   3.00000

Vna:  Cut-off radius for the neutral-atom potential:   6.790259
comcore: Pseudo-core radius Rcore=  2.122997

atom: _________________________________________________________________________

<basis_specs>
===============================================================================
C                    Z=   6    Mass=  12.010        Charge= 0.17977+309
Lmxo=1 Lmxkb= 3    BasisType=split      Semic=F
L=0  Nsemic=0  Cnfigmx=2
          n=1  nzeta=2  polorb=0
            splnorm:   0.15000    
               vcte:    0.0000    
               rinn:    0.0000    
                rcs:    0.0000      0.0000    
            lambdas:    1.0000      1.0000    
L=1  Nsemic=0  Cnfigmx=2
          n=1  nzeta=2  polorb=1
            splnorm:   0.15000    
               vcte:    0.0000    
               rinn:    0.0000    
                rcs:    0.0000      0.0000    
            lambdas:    1.0000      1.0000    
-------------------------------------------------------------------------------
L=0  Nkbl=1  erefs: 0.17977+309
L=1  Nkbl=1  erefs: 0.17977+309
L=2  Nkbl=1  erefs: 0.17977+309
L=3  Nkbl=1  erefs: 0.17977+309
===============================================================================
</basis_specs>

atom: Called for C                     (Z =   6)

read_vps: Pseudopotential generation method:
read_vps: ATM3      Troullier-Martins                       
Total valence charge:    4.00000

read_vps: Pseudopotential includes a core correction:
read_vps: Pseudo-core for xc-correction

xc_check: Exchange-correlation functional:
xc_check: GGA Perdew, Burke & Ernzerhof 1996
V l=0 = -2*Zval/r beyond r=  1.5227
V l=1 = -2*Zval/r beyond r=  1.5227
V l=2 = -2*Zval/r beyond r=  1.5227
V l=3 = -2*Zval/r beyond r=  1.5038
All V_l potentials equal beyond r=  1.5227
This should be close to max(r_c) in ps generation
All pots = -2*Zval/r beyond r=  1.5227

VLOCAL1: 99.0% of the norm of Vloc inside     18.722 Ry
VLOCAL1: 99.9% of the norm of Vloc inside     42.668 Ry
atom: Maximum radius for 4*pi*r*r*local-pseudopot. charge    1.83678
atom: Maximum radius for r*vlocal+2*Zval:    1.58088
GHOST: No ghost state for L =  0
GHOST: No ghost state for L =  1
GHOST: No ghost state for L =  2
GHOST: No ghost state for L =  3

KBgen: Kleinman-Bylander projectors: 
   l= 0   rc=  1.704034   el= -1.009801   Ekb=  5.335044   kbcos=  0.316824
   l= 1   rc=  1.704034   el= -0.388707   Ekb= -3.785862   kbcos= -0.366464
   l= 2   rc=  1.791422   el=  0.001971   Ekb= -0.970471   kbcos= -0.009212
   l= 3   rc=  1.859892   el=  0.003065   Ekb= -0.399525   kbcos= -0.001223

KBgen: Total number of  Kleinman-Bylander projectors:   16
atom: -------------------------------------------------------------------------

atom: SANKEY-TYPE ORBITALS:
atom: Selected multiple-zeta basis: split     

SPLIT: Orbitals with angular momentum L= 0

SPLIT: Basis orbitals for state 2s

SPLIT: PAO cut-off radius determined from an
SPLIT: energy shift=  0.007350 Ry

   izeta = 1
                 lambda =    1.000000
                     rc =    4.632753
                 energy =   -1.002270
                kinetic =    0.855760
    potential(screened) =   -1.858031
       potential(ionic) =   -5.417575

   izeta = 2
                 rmatch =    3.431921
              splitnorm =    0.150000
                 energy =   -0.867111
                kinetic =    1.300804
    potential(screened) =   -2.167915
       potential(ionic) =   -5.962684

SPLIT: Orbitals with angular momentum L= 1

SPLIT: Basis orbitals for state 2p

SPLIT: PAO cut-off radius determined from an
SPLIT: energy shift=  0.007350 Ry

   izeta = 1
                 lambda =    1.000000
                     rc =    5.658549
                 energy =   -0.381140
                kinetic =    2.399701
    potential(screened) =   -2.780841
       potential(ionic) =   -6.206085

   izeta = 2
                 rmatch =    3.653288
              splitnorm =    0.150000
                 energy =   -0.249149
                kinetic =    3.542762
    potential(screened) =   -3.791911
       potential(ionic) =   -7.581078

POLgen: Perturbative polarization orbital with L=  2

POLgen: Polarization orbital for state 2p

   izeta = 1
                     rc =    5.658549
                 energy =    1.109913
                kinetic =    2.304789
    potential(screened) =   -1.194876
       potential(ionic) =   -4.013592
atom: Total number of Sankey-type orbitals: 13

atm_pop: Valence configuration (for local Pseudopot. screening):
 2s( 2.00)                                                            
 2p( 2.00)                                                            
Vna: chval, zval:    4.00000   4.00000

Vna:  Cut-off radius for the neutral-atom potential:   5.658549
comcore: Pseudo-core radius Rcore=  1.791422

atom: _________________________________________________________________________

prinput: Basis input ----------------------------------------------------------

PAO.BasisType split     

%block ChemicalSpeciesLabel
    1    5 B                       # Species index, atomic number, species label
    2    6 C                       # Species index, atomic number, species label
%endblock ChemicalSpeciesLabel

%block PAO.Basis                 # Define Basis set
B                     2                    # Species label, number of l-shells
 n=2   0   2                         # n, l, Nzeta 
   5.422      4.223   
   1.000      1.000   
 n=2   1   2 P   1                   # n, l, Nzeta, Polarization, NzetaPol
   6.790      4.609   
   1.000      1.000   
C                     2                    # Species label, number of l-shells
 n=2   0   2                         # n, l, Nzeta 
   4.633      3.432   
   1.000      1.000   
 n=2   1   2 P   1                   # n, l, Nzeta, Polarization, NzetaPol
   5.659      3.653   
   1.000      1.000   
%endblock PAO.Basis

prinput: ----------------------------------------------------------------------

coor:   Atomic-coordinates input format  =     Fractional

siesta: Atomic coordinates (Bohr) and species
siesta:     -0.02582  13.34970   0.00000  1        1
siesta:      2.30256  14.69411   0.00000  1        2
siesta:      2.30256  17.38257   0.00000  1        3
siesta:      4.63094  18.72698   0.00000  1        4
siesta:      4.63094  21.41544   0.00000  1        5
siesta:      6.95932  22.75985   0.00000  1        6
siesta:      6.95932  25.44831   0.00000  1        7
siesta:     -2.35420  25.44831   0.00000  1        8
siesta:     -7.01096  25.44831   0.00000  1        9
siesta:      4.63094  26.79272   0.00000  1       10
siesta:      4.63094  29.48119   0.00000  1       11
siesta:     -0.02582  26.79272   0.00000  1       12
siesta:     -0.02582  29.48119   0.00000  1       13
siesta:     -4.68258  26.79272   0.00000  1       14
siesta:      2.30256  30.82560   0.00000  1       15
siesta:     -0.02582   2.59549   0.00000  2       16
siesta:     -0.02582   5.28395   0.00000  2       17
siesta:     -2.35420  38.89134   0.00000  2       18
siesta:     -2.35420  41.57980   0.00000  2       19
siesta:      2.30256  38.89134   0.00000  2       20
siesta:      2.30256  41.57980   0.00000  2       21
siesta:      4.63094  34.85847   0.00000  2       22
siesta:      4.63094  37.54693   0.00000  2       23
siesta:      6.95932  30.82560   0.00000  2       24
siesta:      6.95932  33.51406   0.00000  2       25
siesta:      9.28770  26.79272   0.00000  2       26
siesta:      9.28770  29.48119   0.00000  2       27
siesta:     -4.68258  34.85847   0.00000  2       28
siesta:     -4.68258  37.54693   0.00000  2       29
siesta:      2.30256   6.62836   0.00000  2       30
siesta:      2.30256   9.31683   0.00000  2       31
siesta:      4.63094  10.66124   0.00000  2       32
siesta:      4.63094  13.34970   0.00000  2       33
siesta:      6.95932  14.69411   0.00000  2       34
siesta:      6.95932  17.38257   0.00000  2       35
siesta:      9.28770  18.72698   0.00000  2       36
siesta:      9.28770  21.41544   0.00000  2       37
siesta:     11.61608  22.75985   0.00000  2       38
siesta:     11.61608  25.44831   0.00000  2       39
siesta:     -2.35420   6.62836   0.00000  2       40
siesta:     -2.35420   9.31683   0.00000  2       41
siesta:     -0.02582  10.66124   0.00000  2       42
siesta:     -4.68258  10.66124   0.00000  2       43
siesta:     -4.68258  13.34970   0.00000  2       44
siesta:     -2.35420  14.69411   0.00000  2       45
siesta:     -2.35420  17.38257   0.00000  2       46
siesta:     -0.02582  18.72698   0.00000  2       47
siesta:     -0.02582  21.41544   0.00000  2       48
siesta:      2.30256  22.75985   0.00000  2       49
siesta:      2.30256  25.44831   0.00000  2       50
siesta:     -7.01096  14.69411   0.00000  2       51
siesta:     -7.01096  17.38257   0.00000  2       52
siesta:     -4.68258  18.72698   0.00000  2       53
siesta:     -4.68258  21.41544   0.00000  2       54
siesta:     -2.35420  22.75985   0.00000  2       55
siesta:     -9.33934  18.72698   0.00000  2       56
siesta:     -9.33934  21.41544   0.00000  2       57
siesta:     -7.01096  22.75985   0.00000  2       58
siesta:    -11.66772  22.75985   0.00000  2       59
siesta:    -11.66772  25.44831   0.00000  2       60
siesta:     -9.33934  26.79272   0.00000  2       61
siesta:     -9.33934  29.48119   0.00000  2       62
siesta:     -4.68258  29.48119   0.00000  2       63
siesta:      2.30256  33.51406   0.00000  2       64
siesta:     -2.35420  30.82560   0.00000  2       65
siesta:     -2.35420  33.51406   0.00000  2       66
siesta:     -7.01096  30.82560   0.00000  2       67
siesta:     -7.01096  33.51406   0.00000  2       68
siesta:     -0.02582  34.85847   0.00000  2       69
siesta:     -0.02582  37.54693   0.00000  2       70
siesta:     -0.02582  42.92421   0.00000  2       71
siesta:     -0.02582  45.61267   0.00000  2       72

siesta: System type = slab      

initatomlists: Number of atoms, orbitals, and projectors:     72   936  1152

siesta: ******************** Simulation parameters ****************************
siesta:
siesta: The following are some of the parameters of the simulation.
siesta: A complete list of the parameters used, including default values,
siesta: can be found in file out.fdf
siesta:
redata: Non-Collinear-spin run           =     F
redata: SpinPolarized (Up/Down) run      =     F
redata: Number of spin components        =     1
redata: Long output                      =     F
redata: Number of Atomic Species         =        2
redata: Charge density info will appear in .RHO file
redata: Write Mulliken Pop.              =     NO
redata: Mesh Cutoff                      =   200.0000  Ry
redata: Net charge of the system         =     0.0000 |e|
redata: Max. number of SCF Iter          =      500
redata: SCF convergence failure will abort job
redata: Performing Pulay mixing using    =    10 iterations
redata: Mix DM in first SCF step ?       =     F
redata: Write Pulay info on disk?        =     F
redata: Discard 1st Pulay DM after  kick =     F
redata: New DM Mixing Weight             =     0.0500
redata: New DM Occupancy tolerance       = 0.000000000001
redata: No kicks to SCF
redata: DM Mixing Weight for Kicks       =     0.5000
redata: DM Tolerance for SCF             =     0.000100
redata: Require Energy convergence for SCF =     F
redata: DM Energy tolerance for SCF      =     0.000100 eV
redata: Require Harris convergence for SCF =     F
redata: DM Harris energy tolerance for SCF =     0.000100 eV
redata: Using Saved Data (generic)   =     F
redata: Use continuation files for DM    =     T
redata: Neglect nonoverlap interactions  =     F
redata: Method of Calculation            =     Diagonalization
redata: Divide and Conquer               =     T
redata: Electronic Temperature           =     0.0019  Ry
redata: Fix the spin of the system       =     F
redata: Dynamics option                  =     Verlet MD run
redata: Initial MD time step             =        1
redata:   Final MD time step             =        1
redata: Length of MD time step           =     1.0000  fs
redata: Initial Temperature of MD run    =     0.0000  K
redata: Perform a MD quench              =     F
redata: ***********************************************************************
Total number of electrons:   273.000000
Total ionic charge:   273.000000

* ProcessorY, Blocksize:    3  24

k-point displ. along   1 input, could be:     0.50    0.00
k-point displ. along   2 input, could be:     0.50    0.00
 Kpoints in:          231 . Kpoints trimmed:          231

siesta: k-grid: Number of k-points =   231
siesta: k-grid: Cutoff (effective) =     5.000 Ang
siesta: k-grid: Supercell and displacements
siesta: k-grid:   21   0   0      0.500
siesta: k-grid:    0  21   0      0.500
siesta: k-grid:    0   0   1      0.000
Naive supercell factors:     2    2    2

superc: Internal auxiliary supercell:     2 x     2 x     2  =       8
superc: Number of atoms, orbitals, and projectors:    576   7488   9216

* Maximum dynamic memory allocated =     4 MB

siesta:                 ==============================
                            Begin MD step =      1
                        ==============================

superc: Internal auxiliary supercell:     2 x     2 x     2  =       8
superc: Number of atoms, orbitals, and projectors:    576   7488   9216

outcell: Unit cell vectors (Ang):
       12.804619    7.392750    0.000000
        0.000000   14.785500    0.000000
        0.000000    0.000000   10.000000

outcell: Cell vector modules (Ang)   :   14.785500   14.785500   10.000000
outcell: Cell angles (23,13,12) (deg):     90.0000     90.0000     60.0000
outcell: Cell volume (Ang**3)        :   1893.2269
New_DM. Step:     1
Initializing Density Matrix...

InitMesh: MESH =   120 x   120 x    90 =     1296000
InitMesh: Mesh cutoff (required, used) =   200.000   223.865 Ry

* Maximum dynamic memory allocated =   155 MB

stepf: Fermi-Dirac step function

siesta: Program's energy decomposition (eV):
siesta: Ebs     =     -5633.886084
siesta: Eions   =     16482.160403
siesta: Ena     =      4362.617814
siesta: Ekin    =      5587.107004
siesta: Enl     =       762.141927
siesta: DEna    =        -0.000010
siesta: DUscf   =         0.000000
siesta: DUext   =         0.000000
siesta: Exc     =     -4194.008880
siesta: eta*DQ  =         0.000000
siesta: Emadel  =         0.000000
siesta: Emeta   =         0.000000
siesta: Emolmec =         0.000000
siesta: Ekinion =         0.000000
siesta: Eharris =     -9688.966472
siesta: Etot    =     -9964.302548
siesta: FreeEng =     -9964.302548

siesta: iscf   Eharris(eV)      E_KS(eV)   FreeEng(eV)   dDmax  Ef(eV)
siesta:    1    -9688.9665    -9964.3025    -9964.3025  6.5322 -8.2818
timer: Routine,Calls,Time,% = IterSCF        1    3045.259  99.59
elaps: Routine,Calls,Wall,% = IterSCF        1     254.372  99.59
siesta:    2   -13897.1967    -8986.4857    -8986.5344 18.9223 -2.2269
siesta:    3    -9617.8069    -9833.6868    -9833.7124  3.6253 -7.1555
siesta:    4    -9595.3307    -9694.4176    -9694.4544  1.4921 -5.8271
siesta:    5    -9561.4033    -9593.8239    -9593.8483  1.0911 -5.3587
siesta:    6    -9543.1369    -9563.7099    -9563.7461  0.8074 -5.3070
siesta:    7    -9540.4938    -9558.9469    -9559.0243  0.8082 -5.3694
siesta:    8    -9536.4243    -9547.7881    -9547.8606  0.6964 -5.4134
siesta:    9    -9534.9978    -9536.4141    -9536.4873  0.6092 -5.3644
siesta:   10    -9534.9969    -9523.5850    -9523.6501  0.4194 -5.2507
siesta:   11    -9534.7943    -9515.9018    -9515.9772  0.2584 -5.2507
siesta:   12    -9534.5013    -9510.5579    -9510.6237  0.2646 -5.2143
siesta:   13    -9534.3446    -9509.3264    -9509.3989  0.2404 -5.2032
siesta:   14    -9533.7442    -9513.3703    -9513.4534  0.2079 -5.2209
siesta:   15    -9533.5062    -9519.9023    -9519.9999  0.1378 -5.2444
siesta:   16    -9533.3870    -9523.8006    -9523.8934  0.0589 -5.2636
siesta:   17    -9533.3636    -9527.1253    -9527.2189  0.0510 -5.2825
siesta:   18    -9533.3313    -9528.4923    -9528.5868  0.0265 -5.2923
siesta:   19    -9533.3134    -9529.4455    -9529.5414  0.0201 -5.2926
siesta:   20    -9533.3099    -9530.7285    -9530.8251  0.0160 -5.2928
siesta:   21    -9533.3079    -9532.2738    -9532.3710  0.0124 -5.2839
siesta:   22    -9533.3086    -9532.8387    -9532.9357  0.0099 -5.2800
siesta:   23    -9533.3079    -9533.0630    -9533.1589  0.0068 -5.2772
siesta:   24    -9533.3071    -9533.2596    -9533.3557  0.0040 -5.2773
siesta:   25    -9533.3066    -9533.4076    -9533.5037  0.0030 -5.2768
siesta:   26    -9533.3065    -9533.4498    -9533.5462  0.0021 -5.2769
siesta:   27    -9533.3064    -9533.4339    -9533.5303  0.0011 -5.2769
siesta:   28    -9533.3064    -9533.4105    -9533.5069  0.0010 -5.2770
siesta:   29    -9533.3064    -9533.3809    -9533.4773  0.0005 -5.2772
siesta:   30    -9533.3064    -9533.3706    -9533.4670  0.0004 -5.2773
siesta:   31    -9533.3064    -9533.3619    -9533.4582  0.0003 -5.2774
siesta:   32    -9533.3064    -9533.3588    -9533.4552  0.0003 -5.2774
siesta:   33    -9533.3064    -9533.3560    -9533.4524  0.0002 -5.2775
siesta:   34    -9533.3064    -9533.3402    -9533.4366  0.0001 -5.2776
siesta:   35    -9533.3064    -9533.3333    -9533.4296  0.0001 -5.2776
siesta:   36    -9533.3064    -9533.3262    -9533.4226  0.0001 -5.2776

siesta: E_KS(eV) =            -9533.3210

siesta: E_KS - E_eggbox =     -9533.3210

siesta: Atomic forces (eV/Ang):
----------------------------------------
   Tot   -0.059086   -0.205782    0.000000
----------------------------------------
   Max  557.955161
   Res  153.000721    sqrt( Sum f_i^2 / 3N )
----------------------------------------
   Max  557.955161    constrained

Stress-tensor-Voigt (kbar):     -784.27    -2753.10       -0.56      -10.33        0.00        0.00
(Free)E + p*V (eV/cell)    -8139.8905
Target enthalpy (eV/cell)    -9533.4174

siesta: Stress tensor (static) (eV/Ang**3):
        -0.489501   -0.006448    0.000000
        -0.006448   -1.718328    0.000000
         0.000000    0.000000   -0.000348

siesta: Pressure (static):       1179.30940488  kBar

siesta: Stress tensor (total) (eV/Ang**3):
        -0.489501   -0.006448    0.000000
        -0.006448   -1.718328    0.000000
         0.000000    0.000000   -0.000348

siesta: Pressure (total):       1179.30940488  kBar

siesta: Temp_ion =       0.000 K

* Maximum dynamic memory allocated =   167 MB
Computing bands...

siesta: Program's energy decomposition (eV):
siesta: Ebs     =     -4277.391328
siesta: Eions   =     16482.160403
siesta: Ena     =      4362.617814
siesta: Ekin    =      8489.023239
siesta: Enl     =      -853.781094
siesta: DEna    =      -790.456897
siesta: DUscf   =       105.689383
siesta: DUext   =         0.000000
siesta: Exc     =     -4364.253033
siesta: eta*DQ  =         0.000000
siesta: Emadel  =         0.000000
siesta: Emeta   =         0.000000
siesta: Emolmec =         0.000000
siesta: Ekinion =         0.000000
siesta: Eharris =     -9533.306395
siesta: Etot    =     -9533.320991
siesta: FreeEng =     -9533.417354

siesta: Final energy (eV):
siesta:  Band Struct. =   -4277.391328
siesta:       Kinetic =    8489.023239
siesta:       Hartree =   27679.557096
siesta:    Ext. field =       0.000000
siesta:   Exch.-corr. =   -4364.253033
siesta:  Ion-electron =  -63555.942448
siesta:       Ion-ion =   22218.294154
siesta:       Ekinion =       0.000000
siesta:         Total =   -9533.320991

siesta: Atomic forces (eV/Ang):
siesta:      1    1.245272 -106.398388    0.000000
siesta:      2   16.775879  397.834949    0.000000
siesta:      3   15.253386   -2.057233    0.000000
siesta:      4    1.681813   -3.667129    0.000000
siesta:      5   -4.327213    3.057615    0.000000
siesta:      6    3.053901   -3.051088    0.000000
siesta:      7    3.482604    2.644319    0.000000
siesta:      8   -0.387609   -6.116698    0.000000
siesta:      9   -2.694008   -4.007980    0.000000
siesta:     10   -5.620204   -2.846509    0.000000
siesta:     11    3.167825    3.798422    0.000000
siesta:     12    3.062448    0.249941    0.000000
siesta:     13    0.082702 -408.218992    0.000000
siesta:     14    0.662759    5.958321    0.000000
siesta:     15   15.696778    2.838467    0.000000
siesta:     16   -2.639890  404.568528    0.000000
siesta:     17    3.875636 -127.318194    0.000000
siesta:     18    2.650273  131.244651    0.000000
siesta:     19  -25.698510 -553.861165    0.000000
siesta:     20   -3.055310  125.052646    0.000000
siesta:     21   17.917500 -405.288291    0.000000
siesta:     22   26.954107    4.863257    0.000000
siesta:     23   34.605610 -552.562715    0.000000
siesta:     24    6.636372    2.616016    0.000000
siesta:     25   -2.855543    1.209238    0.000000
siesta:     26    6.827114    3.399572    0.000000
siesta:     27   -2.102497    0.111614    0.000000
siesta:     28  -26.531968    5.043877    0.000000
siesta:     29  -33.713036 -549.577462    0.000000
siesta:     30   17.927321  553.770155    0.000000
siesta:     31   -0.945664 -125.493374    0.000000
siesta:     32   28.932806  551.278572    0.000000
siesta:     33   25.407833   -0.282086    0.000000
siesta:     34   -2.514805   -1.466299    0.000000
siesta:     35    6.877113   -2.455771    0.000000
siesta:     36   -2.320084   -0.188180    0.000000
siesta:     37    6.623944   -3.163096    0.000000
siesta:     38   -0.188061    6.267594    0.000000
siesta:     39   -0.284200   -6.163755    0.000000
siesta:     40  -18.620979  549.501538    0.000000
siesta:     41    1.557085 -127.805133    0.000000
siesta:     42    2.638924  542.597840    0.000000
siesta:     43  -32.326846  548.886959    0.000000
siesta:     44  -26.131190   -4.303218    0.000000
siesta:     45  -16.640160  551.432332    0.000000
siesta:     46  -22.346903   -7.923806    0.000000
siesta:     47    6.271046  557.955161    0.000000
siesta:     48   -0.996942    1.556315    0.000000
siesta:     49   -3.132035    0.041221    0.000000
siesta:     50   -0.727321   -3.240102    0.000000
siesta:     51    2.742521   -2.054113    0.000000
siesta:     52   -1.966012   -0.428953    0.000000
siesta:     53    0.950174    2.363583    0.000000
siesta:     54   -0.563348   -1.103319    0.000000
siesta:     55    0.696706   -3.806568    0.000000
siesta:     56    0.852324   -0.281577    0.000000
siesta:     57   -2.011538   -1.861250    0.000000
siesta:     58    0.164258   -2.732994    0.000000
siesta:     59   -0.205691    5.881704    0.000000
siesta:     60    0.681043   -6.420955    0.000000
siesta:     61   -5.820112    4.363428    0.000000
siesta:     62    1.274629    0.255734    0.000000
siesta:     63    1.989892    2.008562    0.000000
siesta:     64   22.470828 -555.262893    0.000000
siesta:     65  -23.390253    2.554484    0.000000
siesta:     66  -23.239874 -557.014857    0.000000
siesta:     67   -2.898823    1.404453    0.000000
siesta:     68    2.794702    1.613459    0.000000
siesta:     69    1.196007  127.303149    0.000000
siesta:     70   -2.474582 -553.827860    0.000000
siesta:     71   10.471879  134.853747    0.000000
siesta:     72   -6.840892 -548.335200    0.000000
siesta: ----------------------------------------
siesta:    Tot   -0.059086   -0.205782    0.000000

siesta: Stress tensor (static) (eV/Ang**3):
siesta:    -0.489501   -0.006448    0.000000
siesta:    -0.006448   -1.718328    0.000000
siesta:     0.000000    0.000000   -0.000348

siesta: Cell volume =       1893.226884 Ang**3

siesta: Pressure (static):
siesta:                Solid            Molecule  Units
siesta:           0.00801662          0.11788228  Ry/Bohr**3
siesta:           0.73605908         10.82355011  eV/Ang**3
siesta:        1179.30940488      17341.42653196  kBar
(Free)E+ p_basis*V_orbitals  =       -9497.940435
(Free)Eharris+ p_basis*V_orbitals  =       -9497.920594

siesta: Electric dipole (a.u.)  =    0.000000    0.000000    0.000000
siesta: Electric dipole (Debye) =    0.000000    0.000000    0.000000

* Maximum dynamic memory allocated : Node    0 =   167 MB
* Maximum dynamic memory allocated : Node    1 =    66 MB
* Maximum dynamic memory allocated : Node    2 =    67 MB
* Maximum dynamic memory allocated : Node    3 =   153 MB
* Maximum dynamic memory allocated : Node    4 =   163 MB
* Maximum dynamic memory allocated : Node    5 =    61 MB
* Maximum dynamic memory allocated : Node    6 =    62 MB
* Maximum dynamic memory allocated : Node    7 =   153 MB
* Maximum dynamic memory allocated : Node    8 =   151 MB
* Maximum dynamic memory allocated : Node    9 =    60 MB
* Maximum dynamic memory allocated : Node   10 =    63 MB
* Maximum dynamic memory allocated : Node   11 =   146 MB

* Maximum memory occured during matrixMtoO                    

timer: CPU execution times:
timer:  Routine       Calls   Time/call    Tot.time        %
timer:  siesta            1  106688.391  106688.391   100.00
timer:  Setup             1       3.383       3.383     0.00
timer:  bands             3     225.664     676.991     0.63
timer:  writewave         1       0.024       0.024     0.00
timer:  KSV_init          1       0.004       0.004     0.00
timer:  IterMD            1  106001.080  106001.080    99.36
timer:  hsparse           1       0.288       0.288     0.00
timer:  overlap           1       7.208       7.208     0.01
timer:  IterSCF          36    2940.320  105851.505    99.22
timer:  kinefsm           2       3.670       7.339     0.01
timer:  nlefsm            2      20.057      40.115     0.04
timer:  DHSCF            37      77.123    2853.545     2.67
timer:  DHSCF1            1       1.189       1.189     0.00
timer:  DHSCF2            1      32.389      32.389     0.03
timer:  REORD           298       0.002       0.626     0.00
timer:  POISON           38       0.451      17.155     0.02
timer:  DHSCF3           37      75.459    2791.972     2.62
timer:  rhoofd           37      16.955     627.336     0.59
timer:  cellXC           37       2.417      89.419     0.08
timer:  vmat             37      36.477    1349.653     1.27
timer:  MolMec            2       0.001       0.001     0.00
timer:  diagon           36    2862.025  103032.890    96.57
timer:  c-eigval       8437       5.584   47112.147    44.16
timer:  c-buildHS      8437       0.036     301.201     0.28
timer:  cdiag         16753       5.684   95226.217    89.26
timer:  cdiag1        16753       0.259    4341.116     4.07
timer:  cdiag2        16753       1.837   30771.076    28.84
timer:  cdiag3        16753       3.376   56561.500    53.02
timer:  cdiag4        16753       0.086    1448.765     1.36
timer:  c-eigvec       8316       5.852   48666.616    45.62
timer:  c-buildD       8316       0.948    7885.228     7.39
timer:  DHSCF4            1      27.766      27.766     0.03
timer:  dfscf             1      25.675      25.675     0.02
timer:  overfsm           1       0.325       0.325     0.00
timer:  optical           1       6.330       6.330     0.01
  

elaps: ELAPSED times:
elaps:  Routine       Calls   Time/call    Tot.time        %
elaps:  siesta            1    8911.589    8911.589   100.00
elaps:  Setup             1       0.282       0.282     0.00
elaps:  bands             3      18.865      56.595     0.64
elaps:  writewave         1       0.002       0.002     0.00
elaps:  KSV_init          1       0.000       0.000     0.00
elaps:  IterMD            1    8854.178    8854.178    99.36
elaps:  hsparse           1       0.028       0.028     0.00
elaps:  overlap           1       0.716       0.716     0.01
elaps:  IterSCF          36     245.602    8841.684    99.22
elaps:  kinefsm           2       0.368       0.737     0.01
elaps:  nlefsm            2       1.768       3.536     0.04
elaps:  DHSCF            37       6.500     240.518     2.70
elaps:  DHSCF1            1       0.101       0.101     0.00
elaps:  DHSCF2            1       2.704       2.704     0.03
elaps:  REORD           298       0.000       0.087     0.00
elaps:  POISON           38       0.038       1.445     0.02
elaps:  DHSCF3           37       6.304     233.249     2.62
elaps:  rhoofd           37       2.945     108.969     1.22
elaps:  cellXC           37       0.201       7.449     0.08
elaps:  vmat             37       3.048     112.772     1.27
elaps:  MolMec            2       0.000       0.000     0.00
elaps:  diagon           36     239.070    8606.506    96.58
elaps:  c-eigval       8437       0.466    3935.186    44.16
elaps:  c-buildHS      8437       0.004      32.868     0.37
elaps:  cdiag         16753       0.469    7864.405    88.25
elaps:  cdiag1        16753       0.021     354.309     3.98
elaps:  cdiag2        16753       0.154    2572.554    28.87
elaps:  cdiag3        16753       0.282    4731.141    53.09
elaps:  cdiag4        16753       0.007     117.001     1.31
elaps:  c-eigvec       8316       0.480    3989.536    44.77
elaps:  c-buildD       8316       0.088     734.102     8.24
elaps:  DHSCF4            1       4.425       4.425     0.05
elaps:  dfscf             1       4.168       4.168     0.05
elaps:  overfsm           1       0.035       0.035     0.00
elaps:  optical           1       0.000       0.000     0.00
  
>> End of run:   3-MAY-2016  11:38:17
