Siesta Version:                                        siesta-3.2-pl-3
Architecture  : x86_64-unknown-linux-gnu--unknown
Compiler flags: mpiifort -g -O2 -fPIC -xSSE4.1 -fp-model source -shared-intel 
PARALLEL version

* Running on   12 nodes in parallel
>> Start of run:   2-MAY-2016  15:58:33

                           ***********************       
                           *  WELCOME TO SIESTA  *       
                           ***********************       

reinit: Reading from standard input
************************** Dump of input data file ****************************
#(1) General system descriptors
SystemName            GRP_doping    # Descriptive name of the system
SystemLabel           GRP_doping    # Short name for naming files
%include STRUCT.fdf
%include KPT.fdf
%include BASIS.fdf
#%include TS.fdf # for transiesta calculation
#(4) DFT, Grid, SCF
XC.functional         GGA           # LDA or GGA (default = LDA)
XC.authors            PBE           # CA (Ceperley-Aldr) = PZ
                                    #    (Perdew-Zunger) - LDA - Default
                                    # PW92 (Perdew-Wang-92) - LDA
                                    # PBE (Perdew-Burke-Ernzerhof) - GGA
MeshCutoff            200.000000    Ry      # Default: 50.0 Ry ~ 0.444 Bohr
                                    #         100.0 Ry ~ 0.314 Bohr
MaxSCFIterations      500           # Default: 50
DM.MixingWeight       0.05          # Default: 0.25
DM.NumberPulay        10            # Default: 0
DM.PulayOnFile        F             # SystemLabel.P1, SystemLabel.P2
DM.Tolerance          1.d-4         # Default: 1.d-4
DM.UseSaveDM          .true.        # because of the bug
SCFMustConverge       .true.
NeglNonOverlapInt     F             # Default: F
#(5) Eigenvalue problem: order-N or diagonalization
SolutionMethod        Diagon        # or Transiesta
ElectronicTemperature 300.0 K       # Default: 300.0 K
#(6) Molecular dynamics and relaxations
#MD.TypeOfRun          CG            # Type of dynamics:
#MD.VariableCell       F
#MD.NumCGsteps         0           # 0 for single-point / 100 for gopt
#MD.MaxCGDispl         0.2 Bohr      # Default: 0.2 Bohr
#MD.MaxForceTol        0.02 eV/Ang   # Default: 0.04 eV/Ang
#MD.MaxStressTol       1.0 GPa       # Default: 1.0 GPa
# Geometry Constraints
#%block GeometryConstraints
#	position from 1 to 44
#%endblock GeometryConstraints
BandLinesScale   pi/a
%block BandLines
 1   0.00000000  0.00000000  0.00000000
50   0.00000000  0.07809418  0.00000000
50   0.04509075  0.07809242  0.00000000
20   0.00000000  0.00000000  0.00000000
%endblock BandLines
************************** End of input data file *****************************

reinit: -----------------------------------------------------------------------
reinit: System Name: GRP_doping
reinit: -----------------------------------------------------------------------
reinit: System Label: GRP_doping                                                  
reinit: -----------------------------------------------------------------------

initatom: Reading input for the pseudopotentials and atomic orbitals ----------
 Species number:            1  Label: N Atomic number:           7
 Species number:            2  Label: C Atomic number:           6
Ground state valence configuration:   2s02  2p03
Reading pseudopotential information in formatted form from N.psf

Valence configuration for pseudopotential generation:
2s( 2.00) rc: 1.48
2p( 3.00) rc: 1.48
3d( 0.00) rc: 1.48
4f( 0.00) rc: 1.48
Ground state valence configuration:   2s02  2p02
Reading pseudopotential information in formatted form from C.psf

Valence configuration for pseudopotential generation:
2s( 2.00) rc: 1.54
2p( 2.00) rc: 1.54
3d( 0.00) rc: 1.54
4f( 0.00) rc: 1.54
For N, standard SIESTA heuristics set lmxkb to 3
 (one more than the basis l, including polarization orbitals).
Use PS.lmax or PS.KBprojectors blocks to override.
For C, standard SIESTA heuristics set lmxkb to 3
 (one more than the basis l, including polarization orbitals).
Use PS.lmax or PS.KBprojectors blocks to override.

<basis_specs>
===============================================================================
N                    Z=   7    Mass=  14.010        Charge= 0.17977+309
Lmxo=1 Lmxkb= 3    BasisType=split      Semic=F
L=0  Nsemic=0  Cnfigmx=2
          n=1  nzeta=2  polorb=0
            splnorm:   0.15000    
               vcte:    0.0000    
               rinn:    0.0000    
                rcs:    0.0000      0.0000    
            lambdas:    1.0000      1.0000    
L=1  Nsemic=0  Cnfigmx=2
          n=1  nzeta=2  polorb=1
            splnorm:   0.15000    
               vcte:    0.0000    
               rinn:    0.0000    
                rcs:    0.0000      0.0000    
            lambdas:    1.0000      1.0000    
-------------------------------------------------------------------------------
L=0  Nkbl=1  erefs: 0.17977+309
L=1  Nkbl=1  erefs: 0.17977+309
L=2  Nkbl=1  erefs: 0.17977+309
L=3  Nkbl=1  erefs: 0.17977+309
===============================================================================
</basis_specs>

atom: Called for N                     (Z =   7)

read_vps: Pseudopotential generation method:
read_vps: ATM3      Troullier-Martins                       
Total valence charge:    5.00000

read_vps: Pseudopotential includes a core correction:
read_vps: Pseudo-core for xc-correction

xc_check: Exchange-correlation functional:
xc_check: GGA Perdew, Burke & Ernzerhof 1996
V l=0 = -2*Zval/r beyond r=  1.4606
V l=1 = -2*Zval/r beyond r=  1.4606
V l=2 = -2*Zval/r beyond r=  1.4606
V l=3 = -2*Zval/r beyond r=  1.4606
All V_l potentials equal beyond r=  1.4606
This should be close to max(r_c) in ps generation
All pots = -2*Zval/r beyond r=  1.4606

VLOCAL1: 99.0% of the norm of Vloc inside     20.347 Ry
VLOCAL1: 99.9% of the norm of Vloc inside     46.372 Ry
atom: Maximum radius for 4*pi*r*r*local-pseudopot. charge    1.76189
atom: Maximum radius for r*vlocal+2*Zval:    1.53550
GHOST: No ghost state for L =  0
GHOST: No ghost state for L =  1
GHOST: No ghost state for L =  2
GHOST: No ghost state for L =  3

KBgen: Kleinman-Bylander projectors: 
   l= 0   rc=  1.634559   el= -1.363963   Ekb=  5.296955   kbcos=  0.335621
   l= 1   rc=  1.614250   el= -0.521451   Ekb= -5.259161   kbcos= -0.433408
   l= 2   rc=  1.718383   el=  0.001991   Ekb= -1.271464   kbcos= -0.007566
   l= 3   rc=  1.761893   el=  0.003093   Ekb= -0.494769   kbcos= -0.001015

KBgen: Total number of  Kleinman-Bylander projectors:   16
atom: -------------------------------------------------------------------------

atom: SANKEY-TYPE ORBITALS:
atom: Selected multiple-zeta basis: split     

SPLIT: Orbitals with angular momentum L= 0

SPLIT: Basis orbitals for state 2s

SPLIT: PAO cut-off radius determined from an
SPLIT: energy shift=  0.007350 Ry

   izeta = 1
                 lambda =    1.000000
                     rc =    4.071465
                 energy =   -1.356470
                kinetic =    1.176977
    potential(screened) =   -2.533447
       potential(ionic) =   -8.057990

   izeta = 2
                 rmatch =    2.905100
              splitnorm =    0.150000
                 energy =   -1.158343
                kinetic =    1.813009
    potential(screened) =   -2.971352
       potential(ionic) =   -8.901931

SPLIT: Orbitals with angular momentum L= 1

SPLIT: Basis orbitals for state 2p

SPLIT: PAO cut-off radius determined from an
SPLIT: energy shift=  0.007350 Ry

   izeta = 1
                 lambda =    1.000000
                     rc =    4.972977
                 energy =   -0.513884
                kinetic =    3.441732
    potential(screened) =   -3.955616
       potential(ionic) =   -9.287901

   izeta = 2
                 rmatch =    3.054066
              splitnorm =    0.150000
                 energy =   -0.318226
                kinetic =    5.125348
    potential(screened) =   -5.443573
       potential(ionic) =  -11.380999

POLgen: Perturbative polarization orbital with L=  2

POLgen: Polarization orbital for state 2p

   izeta = 1
                     rc =    4.972977
                 energy =    1.607437
                kinetic =    3.268125
    potential(screened) =   -1.660688
       potential(ionic) =   -5.973652
atom: Total number of Sankey-type orbitals: 13

atm_pop: Valence configuration (for local Pseudopot. screening):
 2s( 2.00)                                                            
 2p( 3.00)                                                            
Vna: chval, zval:    5.00000   5.00000

Vna:  Cut-off radius for the neutral-atom potential:   4.972977
comcore: Pseudo-core radius Rcore=  1.554824

atom: _________________________________________________________________________

<basis_specs>
===============================================================================
C                    Z=   6    Mass=  12.010        Charge= 0.17977+309
Lmxo=1 Lmxkb= 3    BasisType=split      Semic=F
L=0  Nsemic=0  Cnfigmx=2
          n=1  nzeta=2  polorb=0
            splnorm:   0.15000    
               vcte:    0.0000    
               rinn:    0.0000    
                rcs:    0.0000      0.0000    
            lambdas:    1.0000      1.0000    
L=1  Nsemic=0  Cnfigmx=2
          n=1  nzeta=2  polorb=1
            splnorm:   0.15000    
               vcte:    0.0000    
               rinn:    0.0000    
                rcs:    0.0000      0.0000    
            lambdas:    1.0000      1.0000    
-------------------------------------------------------------------------------
L=0  Nkbl=1  erefs: 0.17977+309
L=1  Nkbl=1  erefs: 0.17977+309
L=2  Nkbl=1  erefs: 0.17977+309
L=3  Nkbl=1  erefs: 0.17977+309
===============================================================================
</basis_specs>

atom: Called for C                     (Z =   6)

read_vps: Pseudopotential generation method:
read_vps: ATM3      Troullier-Martins                       
Total valence charge:    4.00000

read_vps: Pseudopotential includes a core correction:
read_vps: Pseudo-core for xc-correction

xc_check: Exchange-correlation functional:
xc_check: GGA Perdew, Burke & Ernzerhof 1996
V l=0 = -2*Zval/r beyond r=  1.5227
V l=1 = -2*Zval/r beyond r=  1.5227
V l=2 = -2*Zval/r beyond r=  1.5227
V l=3 = -2*Zval/r beyond r=  1.5038
All V_l potentials equal beyond r=  1.5227
This should be close to max(r_c) in ps generation
All pots = -2*Zval/r beyond r=  1.5227

VLOCAL1: 99.0% of the norm of Vloc inside     18.722 Ry
VLOCAL1: 99.9% of the norm of Vloc inside     42.668 Ry
atom: Maximum radius for 4*pi*r*r*local-pseudopot. charge    1.83678
atom: Maximum radius for r*vlocal+2*Zval:    1.58088
GHOST: No ghost state for L =  0
GHOST: No ghost state for L =  1
GHOST: No ghost state for L =  2
GHOST: No ghost state for L =  3

KBgen: Kleinman-Bylander projectors: 
   l= 0   rc=  1.704034   el= -1.009801   Ekb=  5.335044   kbcos=  0.316824
   l= 1   rc=  1.704034   el= -0.388707   Ekb= -3.785862   kbcos= -0.366464
   l= 2   rc=  1.791422   el=  0.001971   Ekb= -0.970471   kbcos= -0.009212
   l= 3   rc=  1.859892   el=  0.003065   Ekb= -0.399525   kbcos= -0.001223

KBgen: Total number of  Kleinman-Bylander projectors:   16
atom: -------------------------------------------------------------------------

atom: SANKEY-TYPE ORBITALS:
atom: Selected multiple-zeta basis: split     

SPLIT: Orbitals with angular momentum L= 0

SPLIT: Basis orbitals for state 2s

SPLIT: PAO cut-off radius determined from an
SPLIT: energy shift=  0.007350 Ry

   izeta = 1
                 lambda =    1.000000
                     rc =    4.632753
                 energy =   -1.002270
                kinetic =    0.855760
    potential(screened) =   -1.858031
       potential(ionic) =   -5.417575

   izeta = 2
                 rmatch =    3.431921
              splitnorm =    0.150000
                 energy =   -0.867111
                kinetic =    1.300804
    potential(screened) =   -2.167915
       potential(ionic) =   -5.962684

SPLIT: Orbitals with angular momentum L= 1

SPLIT: Basis orbitals for state 2p

SPLIT: PAO cut-off radius determined from an
SPLIT: energy shift=  0.007350 Ry

   izeta = 1
                 lambda =    1.000000
                     rc =    5.658549
                 energy =   -0.381140
                kinetic =    2.399701
    potential(screened) =   -2.780841
       potential(ionic) =   -6.206085

   izeta = 2
                 rmatch =    3.653288
              splitnorm =    0.150000
                 energy =   -0.249149
                kinetic =    3.542762
    potential(screened) =   -3.791911
       potential(ionic) =   -7.581078

POLgen: Perturbative polarization orbital with L=  2

POLgen: Polarization orbital for state 2p

   izeta = 1
                     rc =    5.658549
                 energy =    1.109913
                kinetic =    2.304789
    potential(screened) =   -1.194876
       potential(ionic) =   -4.013592
atom: Total number of Sankey-type orbitals: 13

atm_pop: Valence configuration (for local Pseudopot. screening):
 2s( 2.00)                                                            
 2p( 2.00)                                                            
Vna: chval, zval:    4.00000   4.00000

Vna:  Cut-off radius for the neutral-atom potential:   5.658549
comcore: Pseudo-core radius Rcore=  1.791422

atom: _________________________________________________________________________

prinput: Basis input ----------------------------------------------------------

PAO.BasisType split     

%block ChemicalSpeciesLabel
    1    7 N                       # Species index, atomic number, species label
    2    6 C                       # Species index, atomic number, species label
%endblock ChemicalSpeciesLabel

%block PAO.Basis                 # Define Basis set
N                     2                    # Species label, number of l-shells
 n=2   0   2                         # n, l, Nzeta 
   4.071      2.905   
   1.000      1.000   
 n=2   1   2 P   1                   # n, l, Nzeta, Polarization, NzetaPol
   4.973      3.054   
   1.000      1.000   
C                     2                    # Species label, number of l-shells
 n=2   0   2                         # n, l, Nzeta 
   4.633      3.432   
   1.000      1.000   
 n=2   1   2 P   1                   # n, l, Nzeta, Polarization, NzetaPol
   5.659      3.653   
   1.000      1.000   
%endblock PAO.Basis

prinput: ----------------------------------------------------------------------

coor:   Atomic-coordinates input format  =     Fractional

siesta: Atomic coordinates (Bohr) and species
siesta:     -2.35420  38.89134   0.00000  1        1
siesta:     -2.35420  41.57980   0.00000  1        2
siesta:     -0.02582  21.41544   0.00000  1        3
siesta:      2.30256  22.75985   0.00000  1        4
siesta:      2.30256  25.44831   0.00000  1        5
siesta:     -2.35420  22.75985   0.00000  1        6
siesta:     -2.35420  25.44831   0.00000  1        7
siesta:      4.63094  26.79272   0.00000  1        8
siesta:      4.63094  29.48119   0.00000  1        9
siesta:     -0.02582  26.79272   0.00000  1       10
siesta:     -0.02582  29.48119   0.00000  1       11
siesta:      2.30256  30.82560   0.00000  1       12
siesta:      2.30256  33.51406   0.00000  1       13
siesta:     -0.02582  34.85847   0.00000  1       14
siesta:     -0.02582  37.54693   0.00000  1       15
siesta:     -0.02582  42.92421   0.00000  1       16
siesta:     -0.02582   2.59549   0.00000  2       17
siesta:     -0.02582   5.28395   0.00000  2       18
siesta:      2.30256  38.89134   0.00000  2       19
siesta:      2.30256  41.57980   0.00000  2       20
siesta:      4.63094  34.85847   0.00000  2       21
siesta:      4.63094  37.54693   0.00000  2       22
siesta:      6.95932  30.82560   0.00000  2       23
siesta:      6.95932  33.51406   0.00000  2       24
siesta:      9.28770  26.79272   0.00000  2       25
siesta:      9.28770  29.48119   0.00000  2       26
siesta:     -4.68258  34.85847   0.00000  2       27
siesta:     -4.68258  37.54693   0.00000  2       28
siesta:      2.30256   6.62836   0.00000  2       29
siesta:      2.30256   9.31683   0.00000  2       30
siesta:      4.63094  10.66124   0.00000  2       31
siesta:      4.63094  13.34970   0.00000  2       32
siesta:      6.95932  14.69411   0.00000  2       33
siesta:      6.95932  17.38257   0.00000  2       34
siesta:      9.28770  18.72698   0.00000  2       35
siesta:      9.28770  21.41544   0.00000  2       36
siesta:     11.61608  22.75985   0.00000  2       37
siesta:     11.61608  25.44831   0.00000  2       38
siesta:     -2.35420   6.62836   0.00000  2       39
siesta:     -2.35420   9.31683   0.00000  2       40
siesta:     -0.02582  10.66124   0.00000  2       41
siesta:     -0.02582  13.34970   0.00000  2       42
siesta:      2.30256  14.69411   0.00000  2       43
siesta:      2.30256  17.38257   0.00000  2       44
siesta:      4.63094  18.72698   0.00000  2       45
siesta:      4.63094  21.41544   0.00000  2       46
siesta:      6.95932  22.75985   0.00000  2       47
siesta:      6.95932  25.44831   0.00000  2       48
siesta:     -4.68258  10.66124   0.00000  2       49
siesta:     -4.68258  13.34970   0.00000  2       50
siesta:     -2.35420  14.69411   0.00000  2       51
siesta:     -2.35420  17.38257   0.00000  2       52
siesta:     -0.02582  18.72698   0.00000  2       53
siesta:     -7.01096  14.69411   0.00000  2       54
siesta:     -7.01096  17.38257   0.00000  2       55
siesta:     -4.68258  18.72698   0.00000  2       56
siesta:     -4.68258  21.41544   0.00000  2       57
siesta:     -9.33934  18.72698   0.00000  2       58
siesta:     -9.33934  21.41544   0.00000  2       59
siesta:     -7.01096  22.75985   0.00000  2       60
siesta:     -7.01096  25.44831   0.00000  2       61
siesta:    -11.66772  22.75985   0.00000  2       62
siesta:    -11.66772  25.44831   0.00000  2       63
siesta:     -9.33934  26.79272   0.00000  2       64
siesta:     -9.33934  29.48119   0.00000  2       65
siesta:     -4.68258  26.79272   0.00000  2       66
siesta:     -4.68258  29.48119   0.00000  2       67
siesta:     -2.35420  30.82560   0.00000  2       68
siesta:     -2.35420  33.51406   0.00000  2       69
siesta:     -7.01096  30.82560   0.00000  2       70
siesta:     -7.01096  33.51406   0.00000  2       71
siesta:     -0.02582  45.61267   0.00000  2       72

siesta: System type = slab      

initatomlists: Number of atoms, orbitals, and projectors:     72   936  1152

siesta: ******************** Simulation parameters ****************************
siesta:
siesta: The following are some of the parameters of the simulation.
siesta: A complete list of the parameters used, including default values,
siesta: can be found in file out.fdf
siesta:
redata: Non-Collinear-spin run           =     F
redata: SpinPolarized (Up/Down) run      =     F
redata: Number of spin components        =     1
redata: Long output                      =     F
redata: Number of Atomic Species         =        2
redata: Charge density info will appear in .RHO file
redata: Write Mulliken Pop.              =     NO
redata: Mesh Cutoff                      =   200.0000  Ry
redata: Net charge of the system         =     0.0000 |e|
redata: Max. number of SCF Iter          =      500
redata: SCF convergence failure will abort job
redata: Performing Pulay mixing using    =    10 iterations
redata: Mix DM in first SCF step ?       =     F
redata: Write Pulay info on disk?        =     F
redata: Discard 1st Pulay DM after  kick =     F
redata: New DM Mixing Weight             =     0.0500
redata: New DM Occupancy tolerance       = 0.000000000001
redata: No kicks to SCF
redata: DM Mixing Weight for Kicks       =     0.5000
redata: DM Tolerance for SCF             =     0.000100
redata: Require Energy convergence for SCF =     F
redata: DM Energy tolerance for SCF      =     0.000100 eV
redata: Require Harris convergence for SCF =     F
redata: DM Harris energy tolerance for SCF =     0.000100 eV
redata: Using Saved Data (generic)   =     F
redata: Use continuation files for DM    =     T
redata: Neglect nonoverlap interactions  =     F
redata: Method of Calculation            =     Diagonalization
redata: Divide and Conquer               =     T
redata: Electronic Temperature           =     0.0019  Ry
redata: Fix the spin of the system       =     F
redata: Dynamics option                  =     Verlet MD run
redata: Initial MD time step             =        1
redata:   Final MD time step             =        1
redata: Length of MD time step           =     1.0000  fs
redata: Initial Temperature of MD run    =     0.0000  K
redata: Perform a MD quench              =     F
redata: ***********************************************************************
Total number of electrons:   304.000000
Total ionic charge:   304.000000

* ProcessorY, Blocksize:    3  24

k-point displ. along   1 input, could be:     0.50    0.00
k-point displ. along   2 input, could be:     0.50    0.00
 Kpoints in:          231 . Kpoints trimmed:          231

siesta: k-grid: Number of k-points =   231
siesta: k-grid: Cutoff (effective) =     5.000 Ang
siesta: k-grid: Supercell and displacements
siesta: k-grid:   21   0   0      0.500
siesta: k-grid:    0  21   0      0.500
siesta: k-grid:    0   0   1      0.000
Naive supercell factors:     2    2    2

superc: Internal auxiliary supercell:     2 x     2 x     2  =       8
superc: Number of atoms, orbitals, and projectors:    576   7488   9216

* Maximum dynamic memory allocated =     4 MB

siesta:                 ==============================
                            Begin MD step =      1
                        ==============================

superc: Internal auxiliary supercell:     2 x     2 x     2  =       8
superc: Number of atoms, orbitals, and projectors:    576   7488   9216

outcell: Unit cell vectors (Ang):
       12.804619    7.392750    0.000000
        0.000000   14.785500    0.000000
        0.000000    0.000000   10.000000

outcell: Cell vector modules (Ang)   :   14.785500   14.785500   10.000000
outcell: Cell angles (23,13,12) (deg):     90.0000     90.0000     60.0000
outcell: Cell volume (Ang**3)        :   1893.2269
New_DM. Step:     1
Initializing Density Matrix...

InitMesh: MESH =   120 x   120 x    90 =     1296000
InitMesh: Mesh cutoff (required, used) =   200.000   223.865 Ry

* Maximum dynamic memory allocated =   134 MB

stepf: Fermi-Dirac step function

siesta: Program's energy decomposition (eV):
siesta: Ebs     =     -6210.863739
siesta: Eions   =     20974.960578
siesta: Ena     =      4890.690546
siesta: Ekin    =      7720.939539
siesta: Enl     =       154.701575
siesta: DEna    =        -0.000015
siesta: DUscf   =         0.000000
siesta: DUext   =         0.000000
siesta: Exc     =     -4574.457559
siesta: eta*DQ  =         0.000000
siesta: Emadel  =         0.000000
siesta: Emeta   =         0.000000
siesta: Emolmec =         0.000000
siesta: Ekinion =         0.000000
siesta: Eharris =    -12406.052333
siesta: Etot    =    -12783.086492
siesta: FreeEng =    -12783.086492

siesta: iscf   Eharris(eV)      E_KS(eV)   FreeEng(eV)   dDmax  Ef(eV)
siesta:    1   -12406.0523   -12783.0865   -12783.0865  6.1820 -6.8900
timer: Routine,Calls,Time,% = IterSCF        1    3008.436  99.59
elaps: Routine,Calls,Wall,% = IterSCF        1     251.297  99.59
siesta:    2   -16814.6614   -11777.9162   -11777.9826 15.8441 -3.8087
siesta:    3   -12307.9425   -12607.6635   -12607.6914  2.8851 -5.6208
siesta:    4   -12281.9756   -12427.6002   -12427.6049  1.0269 -4.4890
siesta:    5   -12253.8350   -12351.6578   -12351.7307  1.0046 -4.1897
siesta:    6   -12250.9613   -12328.8111   -12328.8644  0.9542 -4.0953
siesta:    7   -12246.0706   -12309.2238   -12309.3094  0.8363 -4.0650
siesta:    8   -12244.5621   -12279.8808   -12279.9275  0.6218 -4.0175
siesta:    9   -12244.0187   -12266.6473   -12266.6779  0.5347 -3.9801
siesta:   10   -12244.2265   -12243.3952   -12243.4512  0.3162 -3.9954
siesta:   11   -12243.7935   -12235.0156   -12235.0685  0.3000 -3.9670
siesta:   12   -12243.4045   -12231.9697   -12232.0235  0.2288 -3.9452
siesta:   13   -12242.7993   -12227.9725   -12228.0499  0.1400 -3.9754
siesta:   14   -12242.5942   -12228.0068   -12228.1066  0.1499 -3.9779
siesta:   15   -12242.4068   -12229.5959   -12229.6790  0.0832 -3.9802
siesta:   16   -12242.3426   -12230.1849   -12230.2707  0.0757 -3.9965
siesta:   17   -12242.3022   -12231.9354   -12232.0150  0.0392 -3.9989
siesta:   18   -12242.2845   -12233.9201   -12234.0093  0.0345 -4.0024
siesta:   19   -12242.2830   -12238.2867   -12238.3730  0.0275 -4.0099
siesta:   20   -12242.2739   -12239.7214   -12239.8108  0.0303 -4.0094
siesta:   21   -12242.2636   -12241.3680   -12241.4594  0.0179 -4.0087
siesta:   22   -12242.2593   -12242.0562   -12242.1468  0.0146 -4.0090
siesta:   23   -12242.2578   -12242.9666   -12243.0592  0.0114 -4.0078
siesta:   24   -12242.2566   -12242.6317   -12242.7235  0.0083 -4.0033
siesta:   25   -12242.2557   -12242.5505   -12242.6427  0.0034 -3.9998
siesta:   26   -12242.2557   -12242.4574   -12242.5500  0.0020 -3.9987
siesta:   27   -12242.2557   -12242.3960   -12242.4885  0.0013 -3.9988
siesta:   28   -12242.2557   -12242.3466   -12242.4389  0.0009 -3.9989
siesta:   29   -12242.2556   -12242.3672   -12242.4596  0.0009 -3.9989
siesta:   30   -12242.2557   -12242.2817   -12242.3740  0.0005 -3.9992
siesta:   31   -12242.2557   -12242.2759   -12242.3682  0.0004 -3.9993
siesta:   32   -12242.2557   -12242.2792   -12242.3715  0.0003 -3.9994
siesta:   33   -12242.2557   -12242.2765   -12242.3687  0.0002 -3.9994
siesta:   34   -12242.2557   -12242.2708   -12242.3631  0.0002 -3.9994
siesta:   35   -12242.2557   -12242.2675   -12242.3598  0.0002 -3.9995
siesta:   36   -12242.2557   -12242.2707   -12242.3630  0.0001 -3.9995
siesta:   37   -12242.2557   -12242.2643   -12242.3566  0.0001 -3.9995

siesta: E_KS(eV) =           -12242.2582

siesta: E_KS - E_eggbox =    -12242.2582

siesta: Atomic forces (eV/Ang):
----------------------------------------
   Tot   -0.045291   -0.117243    0.000000
----------------------------------------
   Max  685.201010
   Res  176.640089    sqrt( Sum f_i^2 / 3N )
----------------------------------------
   Max  685.201010    constrained

Stress-tensor-Voigt (kbar):     -637.80    -3195.07       -0.13      -18.74        0.00        0.00
(Free)E + p*V (eV/cell)   -10732.5983
Target enthalpy (eV/cell)   -12242.3505

siesta: Stress tensor (static) (eV/Ang**3):
        -0.398080   -0.011699    0.000000
        -0.011699   -1.994187    0.000000
         0.000000    0.000000   -0.000081

siesta: Pressure (static):       1277.66827237  kBar

siesta: Stress tensor (total) (eV/Ang**3):
        -0.398080   -0.011699    0.000000
        -0.011699   -1.994187    0.000000
         0.000000    0.000000   -0.000081

siesta: Pressure (total):       1277.66827237  kBar

siesta: Temp_ion =       0.000 K

* Maximum dynamic memory allocated =   146 MB
Computing bands...

siesta: Program's energy decomposition (eV):
siesta: Ebs     =     -4948.361733
siesta: Eions   =     20974.960578
siesta: Ena     =      4890.690546
siesta: Ekin    =     10865.048860
siesta: Enl     =     -1566.888013
siesta: DEna    =      -813.361975
siesta: DUscf   =       110.679306
siesta: DUext   =         0.000000
siesta: Exc     =     -4753.466374
siesta: eta*DQ  =         0.000000
siesta: Emadel  =         0.000000
siesta: Emeta   =         0.000000
siesta: Emolmec =         0.000000
siesta: Ekinion =         0.000000
siesta: Eharris =    -12242.255695
siesta: Etot    =    -12242.258228
siesta: FreeEng =    -12242.350528

siesta: Final energy (eV):
siesta:  Band Struct. =   -4948.361733
siesta:       Kinetic =   10865.048860
siesta:       Hartree =   35768.157867
siesta:    Ext. field =       0.000000
siesta:   Exch.-corr. =   -4753.466374
siesta:  Ion-electron =  -81944.544057
siesta:       Ion-ion =   27822.545476
siesta:       Ekinion =       0.000000
siesta:         Total =  -12242.258228

siesta: Atomic forces (eV/Ang):
siesta:      1   -0.460497  106.611182    0.000000
siesta:      2  -21.507584 -655.437466    0.000000
siesta:      3   -0.279974   -0.058569    0.000000
siesta:      4    0.317697   -1.124676    0.000000
siesta:      5    0.758941    0.530444    0.000000
siesta:      6   -0.303225   -1.136163    0.000000
siesta:      7   -0.376226   -0.440741    0.000000
siesta:      8    0.742706   -0.807750    0.000000
siesta:      9    0.993242   -2.635052    0.000000
siesta:     10   -1.504716    5.152262    0.000000
siesta:     11  -15.409613 -685.201010    0.000000
siesta:     12   34.453889   11.814532    0.000000
siesta:     13    8.297948 -675.136879    0.000000
siesta:     14   -3.174906  107.655909    0.000000
siesta:     15    5.242141 -659.521425    0.000000
siesta:     16    0.366091  121.471605    0.000000
siesta:     17    9.311075  641.882084    0.000000
siesta:     18   -1.268633 -119.604770    0.000000
siesta:     19    0.783524  127.930849    0.000000
siesta:     20   15.788174 -551.587073    0.000000
siesta:     21   26.943251   10.117888    0.000000
siesta:     22   30.762329 -551.098565    0.000000
siesta:     23    2.426863    0.600032    0.000000
siesta:     24   -2.230037    0.345311    0.000000
siesta:     25    1.522029    1.591985    0.000000
siesta:     26   -1.337866    0.978681    0.000000
siesta:     27  -27.789172    4.480859    0.000000
siesta:     28  -32.370488 -555.472433    0.000000
siesta:     29   14.025330  656.490240    0.000000
siesta:     30   -2.214933 -118.699018    0.000000
siesta:     31   32.831559  551.878248    0.000000
siesta:     32   25.834631   -6.211780    0.000000
siesta:     33   -2.685813   -1.715642    0.000000
siesta:     34    2.570758   -0.032245    0.000000
siesta:     35   -1.268310   -0.727845    0.000000
siesta:     36    2.129100   -1.622686    0.000000
siesta:     37   -0.202281    6.572673    0.000000
siesta:     38   -0.332716   -6.415535    0.000000
siesta:     39    2.955759  547.974307    0.000000
siesta:     40   -1.637908 -120.763572    0.000000
siesta:     41  -11.361117  670.135525    0.000000
siesta:     42    2.503495 -121.266066    0.000000
siesta:     43    8.495406  557.592153    0.000000
siesta:     44   23.691246   -3.480829    0.000000
siesta:     45   -2.682065    3.810040    0.000000
siesta:     46   -0.103395   -1.071737    0.000000
siesta:     47   -0.998275    1.262814    0.000000
siesta:     48   -0.609021   -0.550727    0.000000
siesta:     49  -19.714644  551.633552    0.000000
siesta:     50  -26.341809   -4.389052    0.000000
siesta:     51   -5.297726  681.562637    0.000000
siesta:     52  -24.031676   -3.111749    0.000000
siesta:     53    0.360654  569.955798    0.000000
siesta:     54    3.140746   -1.187547    0.000000
siesta:     55   -2.352208   -0.037966    0.000000
siesta:     56    2.472653    3.444398    0.000000
siesta:     57   -0.011182   -0.642645    0.000000
siesta:     58    1.191959   -0.289275    0.000000
siesta:     59   -1.907751   -2.202821    0.000000
siesta:     60    0.537568    0.946756    0.000000
siesta:     61    0.457194   -0.988657    0.000000
siesta:     62    0.273772    7.543363    0.000000
siesta:     63    0.302470   -7.457634    0.000000
siesta:     64   -2.083950    2.131474    0.000000
siesta:     65    1.142946    0.384070    0.000000
siesta:     66    0.073847    0.767240    0.000000
siesta:     67    2.017287   -3.595884    0.000000
siesta:     68  -25.983763   10.740217    0.000000
siesta:     69  -26.076483 -561.811531    0.000000
siesta:     70   -2.292516    0.072268    0.000000
siesta:     71    2.999436    1.572731    0.000000
siesta:     72   -0.560525 -540.216353    0.000000
siesta: ----------------------------------------
siesta:    Tot   -0.045291   -0.117243    0.000000

siesta: Stress tensor (static) (eV/Ang**3):
siesta:    -0.398080   -0.011699    0.000000
siesta:    -0.011699   -1.994187    0.000000
siesta:     0.000000    0.000000   -0.000081

siesta: Cell volume =       1893.226884 Ang**3

siesta: Pressure (static):
siesta:                Solid            Molecule  Units
siesta:           0.00868524          0.13985001  Ry/Bohr**3
siesta:           0.79744919         12.84055251  eV/Ang**3
siesta:        1277.66827237      20573.05557787  kBar
(Free)E+ p_basis*V_orbitals  =      -12213.900327
(Free)Eharris+ p_basis*V_orbitals  =      -12213.891764

siesta: Electric dipole (a.u.)  =    0.000000    0.000000    0.000000
siesta: Electric dipole (Debye) =    0.000000    0.000000    0.000000

* Maximum dynamic memory allocated : Node    0 =   146 MB
* Maximum dynamic memory allocated : Node    1 =    57 MB
* Maximum dynamic memory allocated : Node    2 =    60 MB
* Maximum dynamic memory allocated : Node    3 =   134 MB
* Maximum dynamic memory allocated : Node    4 =   146 MB
* Maximum dynamic memory allocated : Node    5 =    54 MB
* Maximum dynamic memory allocated : Node    6 =    55 MB
* Maximum dynamic memory allocated : Node    7 =   136 MB
* Maximum dynamic memory allocated : Node    8 =   127 MB
* Maximum dynamic memory allocated : Node    9 =    52 MB
* Maximum dynamic memory allocated : Node   10 =    53 MB
* Maximum dynamic memory allocated : Node   11 =   121 MB

* Maximum memory occured during matrixMtoO                    

timer: CPU execution times:
timer:  Routine       Calls   Time/call    Tot.time        %
timer:  siesta            1  109166.629  109166.629   100.00
timer:  Setup             1       3.340       3.340     0.00
timer:  bands             3     226.530     679.591     0.62
timer:  writewave         1       0.024       0.024     0.00
timer:  KSV_init          1       0.002       0.002     0.00
timer:  IterMD            1  108476.789  108476.789    99.37
timer:  hsparse           1       0.160       0.160     0.00
timer:  overlap           1       7.364       7.364     0.01
timer:  IterSCF          37    2928.505  108354.671    99.26
timer:  kinefsm           2       3.730       7.459     0.01
timer:  nlefsm            2      18.326      36.652     0.03
timer:  DHSCF            38      60.732    2307.804     2.11
timer:  DHSCF1            1       0.904       0.904     0.00
timer:  DHSCF2            1      24.787      24.787     0.02
timer:  REORD           306       0.002       0.713     0.00
timer:  POISON           39       0.447      17.428     0.02
timer:  DHSCF3           38      59.508    2261.296     2.07
timer:  rhoofd           38      12.042     457.585     0.42
timer:  cellXC           38       2.438      92.661     0.08
timer:  vmat             38      27.967    1062.747     0.97
timer:  MolMec            2       0.000       0.000     0.00
timer:  diagon           37    2866.558  106062.654    97.16
timer:  c-eigval       8668       5.596   48502.008    44.43
timer:  c-buildHS      8668       0.033     284.606     0.26
timer:  cdiag         17215       5.696   98065.094    89.83
timer:  cdiag1        17215       0.261    4489.724     4.11
timer:  cdiag2        17215       1.838   31632.608    28.98
timer:  cdiag3        17215       3.386   58296.468    53.40
timer:  cdiag4        17215       0.088    1520.845     1.39
timer:  c-eigvec       8547       5.860   50085.977    45.88
timer:  c-buildD       8547       0.948    8106.669     7.43
timer:  DHSCF4            1      20.576      20.576     0.02
timer:  dfscf             1      19.154      19.154     0.02
timer:  overfsm           1       0.274       0.274     0.00
timer:  optical           1       6.300       6.300     0.01
  

elaps: ELAPSED times:
elaps:  Routine       Calls   Time/call    Tot.time        %
elaps:  siesta            1    9118.600    9118.600   100.00
elaps:  Setup             1       0.279       0.279     0.00
elaps:  bands             3      18.937      56.810     0.62
elaps:  writewave         1       0.002       0.002     0.00
elaps:  KSV_init          1       0.000       0.000     0.00
elaps:  IterMD            1    9060.978    9060.978    99.37
elaps:  hsparse           1       0.017       0.017     0.00
elaps:  overlap           1       0.711       0.711     0.01
elaps:  IterSCF          37     244.616    9050.778    99.26
elaps:  kinefsm           2       0.362       0.725     0.01
elaps:  nlefsm            2       1.543       3.086     0.03
elaps:  DHSCF            38       5.118     194.482     2.13
elaps:  DHSCF1            1       0.077       0.077     0.00
elaps:  DHSCF2            1       2.069       2.069     0.02
elaps:  REORD           306       0.000       0.090     0.00
elaps:  POISON           39       0.037       1.461     0.02
elaps:  DHSCF3           38       4.971     188.900     2.07
elaps:  rhoofd           38       2.133      81.058     0.89
elaps:  cellXC           38       0.203       7.724     0.08
elaps:  vmat             38       2.337      88.792     0.97
elaps:  MolMec            2       0.000       0.000     0.00
elaps:  diagon           37     239.447    8859.556    97.16
elaps:  c-eigval       8668       0.467    4051.270    44.43
elaps:  c-buildHS      8668       0.004      30.632     0.34
elaps:  cdiag         17215       0.471    8109.028    88.93
elaps:  cdiag1        17215       0.021     367.537     4.03
elaps:  cdiag2        17215       0.154    2644.602    29.00
elaps:  cdiag3        17215       0.283    4876.982    53.48
elaps:  cdiag4        17215       0.007     121.695     1.33
elaps:  c-eigvec       8547       0.481    4114.055    45.12
elaps:  c-buildD       8547       0.087     746.533     8.19
elaps:  DHSCF4            1       3.390       3.390     0.04
elaps:  dfscf             1       3.202       3.202     0.04
elaps:  overfsm           1       0.030       0.030     0.00
elaps:  optical           1       0.000       0.000     0.00
  
>> End of run:   2-MAY-2016  18:30:32
