Siesta Version:                                        siesta-3.2-pl-3
Architecture  : x86_64-unknown-linux-gnu--unknown
Compiler flags: mpiifort -g -O2 -fPIC -xSSE4.1 -fp-model source -shared-intel 
PARALLEL version

* Running on    8 nodes in parallel
>> Start of run:  20-APR-2016  16:12:05

                           ***********************       
                           *  WELCOME TO SIESTA  *       
                           ***********************       

reinit: Reading from standard input
************************** Dump of input data file ****************************
#(1) General system descriptors
SystemName            GRP_doping    # Descriptive name of the system
SystemLabel           GRP_doping    # Short name for naming files
%include STRUCT.fdf
%include KPT.fdf
%include BASIS.fdf
#%include TS.fdf # for transiesta calculation
#(4) DFT, Grid, SCF
XC.functional         GGA           # LDA or GGA (default = LDA)
XC.authors            PBE           # CA (Ceperley-Aldr) = PZ
                                    #    (Perdew-Zunger) - LDA - Default
                                    # PW92 (Perdew-Wang-92) - LDA
                                    # PBE (Perdew-Burke-Ernzerhof) - GGA
MeshCutoff            200.000000    Ry      # Default: 50.0 Ry ~ 0.444 Bohr
                                    #         100.0 Ry ~ 0.314 Bohr
MaxSCFIterations      500           # Default: 50
DM.MixingWeight       0.05          # Default: 0.25
DM.NumberPulay        10            # Default: 0
DM.PulayOnFile        F             # SystemLabel.P1, SystemLabel.P2
DM.Tolerance          1.d-4         # Default: 1.d-4
DM.UseSaveDM          .true.        # because of the bug
SCFMustConverge       .true.
NeglNonOverlapInt     F             # Default: F
#(5) Eigenvalue problem: order-N or diagonalization
SolutionMethod        Diagon        # or Transiesta
ElectronicTemperature 300.0 K       # Default: 300.0 K
#(6) Molecular dynamics and relaxations
#MD.TypeOfRun          CG            # Type of dynamics:
#MD.VariableCell       F
#MD.NumCGsteps         0           # 0 for single-point / 100 for gopt
#MD.MaxCGDispl         0.2 Bohr      # Default: 0.2 Bohr
#MD.MaxForceTol        0.02 eV/Ang   # Default: 0.04 eV/Ang
#MD.MaxStressTol       1.0 GPa       # Default: 1.0 GPa
# Geometry Constraints
#%block GeometryConstraints
#	position from 1 to 44
#%endblock GeometryConstraints
BandLinesScale   pi/a
%block BandLines
 1   0.00000000  0.00000000  0.00000000
50   0.00000000  0.07809418  0.00000000
50   0.04509075  0.07809242  0.00000000
20   0.00000000  0.00000000  0.00000000
%endblock BandLines
************************** End of input data file *****************************

reinit: -----------------------------------------------------------------------
reinit: System Name: GRP_doping
reinit: -----------------------------------------------------------------------
reinit: System Label: GRP_doping                                                  
reinit: -----------------------------------------------------------------------

initatom: Reading input for the pseudopotentials and atomic orbitals ----------
 Species number:            1  Label: N Atomic number:           7
 Species number:            2  Label: C Atomic number:           6
Ground state valence configuration:   2s02  2p03
Reading pseudopotential information in formatted form from N.psf

Valence configuration for pseudopotential generation:
2s( 2.00) rc: 1.48
2p( 3.00) rc: 1.48
3d( 0.00) rc: 1.48
4f( 0.00) rc: 1.48
Ground state valence configuration:   2s02  2p02
Reading pseudopotential information in formatted form from C.psf

Valence configuration for pseudopotential generation:
2s( 2.00) rc: 1.54
2p( 2.00) rc: 1.54
3d( 0.00) rc: 1.54
4f( 0.00) rc: 1.54
For N, standard SIESTA heuristics set lmxkb to 3
 (one more than the basis l, including polarization orbitals).
Use PS.lmax or PS.KBprojectors blocks to override.
For C, standard SIESTA heuristics set lmxkb to 3
 (one more than the basis l, including polarization orbitals).
Use PS.lmax or PS.KBprojectors blocks to override.

<basis_specs>
===============================================================================
N                    Z=   7    Mass=  14.010        Charge= 0.17977+309
Lmxo=1 Lmxkb= 3    BasisType=split      Semic=F
L=0  Nsemic=0  Cnfigmx=2
          n=1  nzeta=2  polorb=0
            splnorm:   0.15000    
               vcte:    0.0000    
               rinn:    0.0000    
                rcs:    0.0000      0.0000    
            lambdas:    1.0000      1.0000    
L=1  Nsemic=0  Cnfigmx=2
          n=1  nzeta=2  polorb=1
            splnorm:   0.15000    
               vcte:    0.0000    
               rinn:    0.0000    
                rcs:    0.0000      0.0000    
            lambdas:    1.0000      1.0000    
-------------------------------------------------------------------------------
L=0  Nkbl=1  erefs: 0.17977+309
L=1  Nkbl=1  erefs: 0.17977+309
L=2  Nkbl=1  erefs: 0.17977+309
L=3  Nkbl=1  erefs: 0.17977+309
===============================================================================
</basis_specs>

atom: Called for N                     (Z =   7)

read_vps: Pseudopotential generation method:
read_vps: ATM3      Troullier-Martins                       
Total valence charge:    5.00000

read_vps: Pseudopotential includes a core correction:
read_vps: Pseudo-core for xc-correction

xc_check: Exchange-correlation functional:
xc_check: GGA Perdew, Burke & Ernzerhof 1996
V l=0 = -2*Zval/r beyond r=  1.4606
V l=1 = -2*Zval/r beyond r=  1.4606
V l=2 = -2*Zval/r beyond r=  1.4606
V l=3 = -2*Zval/r beyond r=  1.4606
All V_l potentials equal beyond r=  1.4606
This should be close to max(r_c) in ps generation
All pots = -2*Zval/r beyond r=  1.4606

VLOCAL1: 99.0% of the norm of Vloc inside     20.347 Ry
VLOCAL1: 99.9% of the norm of Vloc inside     46.372 Ry
atom: Maximum radius for 4*pi*r*r*local-pseudopot. charge    1.76189
atom: Maximum radius for r*vlocal+2*Zval:    1.53550
GHOST: No ghost state for L =  0
GHOST: No ghost state for L =  1
GHOST: No ghost state for L =  2
GHOST: No ghost state for L =  3

KBgen: Kleinman-Bylander projectors: 
   l= 0   rc=  1.634559   el= -1.363963   Ekb=  5.296955   kbcos=  0.335621
   l= 1   rc=  1.614250   el= -0.521451   Ekb= -5.259161   kbcos= -0.433408
   l= 2   rc=  1.718383   el=  0.001991   Ekb= -1.271464   kbcos= -0.007566
   l= 3   rc=  1.761893   el=  0.003093   Ekb= -0.494769   kbcos= -0.001015

KBgen: Total number of  Kleinman-Bylander projectors:   16
atom: -------------------------------------------------------------------------

atom: SANKEY-TYPE ORBITALS:
atom: Selected multiple-zeta basis: split     

SPLIT: Orbitals with angular momentum L= 0

SPLIT: Basis orbitals for state 2s

SPLIT: PAO cut-off radius determined from an
SPLIT: energy shift=  0.007350 Ry

   izeta = 1
                 lambda =    1.000000
                     rc =    4.071465
                 energy =   -1.356470
                kinetic =    1.176977
    potential(screened) =   -2.533447
       potential(ionic) =   -8.057990

   izeta = 2
                 rmatch =    2.905100
              splitnorm =    0.150000
                 energy =   -1.158343
                kinetic =    1.813009
    potential(screened) =   -2.971352
       potential(ionic) =   -8.901931

SPLIT: Orbitals with angular momentum L= 1

SPLIT: Basis orbitals for state 2p

SPLIT: PAO cut-off radius determined from an
SPLIT: energy shift=  0.007350 Ry

   izeta = 1
                 lambda =    1.000000
                     rc =    4.972977
                 energy =   -0.513884
                kinetic =    3.441732
    potential(screened) =   -3.955616
       potential(ionic) =   -9.287901

   izeta = 2
                 rmatch =    3.054066
              splitnorm =    0.150000
                 energy =   -0.318226
                kinetic =    5.125348
    potential(screened) =   -5.443573
       potential(ionic) =  -11.380999

POLgen: Perturbative polarization orbital with L=  2

POLgen: Polarization orbital for state 2p

   izeta = 1
                     rc =    4.972977
                 energy =    1.607437
                kinetic =    3.268125
    potential(screened) =   -1.660688
       potential(ionic) =   -5.973652
atom: Total number of Sankey-type orbitals: 13

atm_pop: Valence configuration (for local Pseudopot. screening):
 2s( 2.00)                                                            
 2p( 3.00)                                                            
Vna: chval, zval:    5.00000   5.00000

Vna:  Cut-off radius for the neutral-atom potential:   4.972977
comcore: Pseudo-core radius Rcore=  1.554824

atom: _________________________________________________________________________

<basis_specs>
===============================================================================
C                    Z=   6    Mass=  12.010        Charge= 0.17977+309
Lmxo=1 Lmxkb= 3    BasisType=split      Semic=F
L=0  Nsemic=0  Cnfigmx=2
          n=1  nzeta=2  polorb=0
            splnorm:   0.15000    
               vcte:    0.0000    
               rinn:    0.0000    
                rcs:    0.0000      0.0000    
            lambdas:    1.0000      1.0000    
L=1  Nsemic=0  Cnfigmx=2
          n=1  nzeta=2  polorb=1
            splnorm:   0.15000    
               vcte:    0.0000    
               rinn:    0.0000    
                rcs:    0.0000      0.0000    
            lambdas:    1.0000      1.0000    
-------------------------------------------------------------------------------
L=0  Nkbl=1  erefs: 0.17977+309
L=1  Nkbl=1  erefs: 0.17977+309
L=2  Nkbl=1  erefs: 0.17977+309
L=3  Nkbl=1  erefs: 0.17977+309
===============================================================================
</basis_specs>

atom: Called for C                     (Z =   6)

read_vps: Pseudopotential generation method:
read_vps: ATM3      Troullier-Martins                       
Total valence charge:    4.00000

read_vps: Pseudopotential includes a core correction:
read_vps: Pseudo-core for xc-correction

xc_check: Exchange-correlation functional:
xc_check: GGA Perdew, Burke & Ernzerhof 1996
V l=0 = -2*Zval/r beyond r=  1.5227
V l=1 = -2*Zval/r beyond r=  1.5227
V l=2 = -2*Zval/r beyond r=  1.5227
V l=3 = -2*Zval/r beyond r=  1.5038
All V_l potentials equal beyond r=  1.5227
This should be close to max(r_c) in ps generation
All pots = -2*Zval/r beyond r=  1.5227

VLOCAL1: 99.0% of the norm of Vloc inside     18.722 Ry
VLOCAL1: 99.9% of the norm of Vloc inside     42.668 Ry
atom: Maximum radius for 4*pi*r*r*local-pseudopot. charge    1.83678
atom: Maximum radius for r*vlocal+2*Zval:    1.58088
GHOST: No ghost state for L =  0
GHOST: No ghost state for L =  1
GHOST: No ghost state for L =  2
GHOST: No ghost state for L =  3

KBgen: Kleinman-Bylander projectors: 
   l= 0   rc=  1.704034   el= -1.009801   Ekb=  5.335044   kbcos=  0.316824
   l= 1   rc=  1.704034   el= -0.388707   Ekb= -3.785862   kbcos= -0.366464
   l= 2   rc=  1.791422   el=  0.001971   Ekb= -0.970471   kbcos= -0.009212
   l= 3   rc=  1.859892   el=  0.003065   Ekb= -0.399525   kbcos= -0.001223

KBgen: Total number of  Kleinman-Bylander projectors:   16
atom: -------------------------------------------------------------------------

atom: SANKEY-TYPE ORBITALS:
atom: Selected multiple-zeta basis: split     

SPLIT: Orbitals with angular momentum L= 0

SPLIT: Basis orbitals for state 2s

SPLIT: PAO cut-off radius determined from an
SPLIT: energy shift=  0.007350 Ry

   izeta = 1
                 lambda =    1.000000
                     rc =    4.632753
                 energy =   -1.002270
                kinetic =    0.855760
    potential(screened) =   -1.858031
       potential(ionic) =   -5.417575

   izeta = 2
                 rmatch =    3.431921
              splitnorm =    0.150000
                 energy =   -0.867111
                kinetic =    1.300804
    potential(screened) =   -2.167915
       potential(ionic) =   -5.962684

SPLIT: Orbitals with angular momentum L= 1

SPLIT: Basis orbitals for state 2p

SPLIT: PAO cut-off radius determined from an
SPLIT: energy shift=  0.007350 Ry

   izeta = 1
                 lambda =    1.000000
                     rc =    5.658549
                 energy =   -0.381140
                kinetic =    2.399701
    potential(screened) =   -2.780841
       potential(ionic) =   -6.206085

   izeta = 2
                 rmatch =    3.653288
              splitnorm =    0.150000
                 energy =   -0.249149
                kinetic =    3.542762
    potential(screened) =   -3.791911
       potential(ionic) =   -7.581078

POLgen: Perturbative polarization orbital with L=  2

POLgen: Polarization orbital for state 2p

   izeta = 1
                     rc =    5.658549
                 energy =    1.109913
                kinetic =    2.304789
    potential(screened) =   -1.194876
       potential(ionic) =   -4.013592
atom: Total number of Sankey-type orbitals: 13

atm_pop: Valence configuration (for local Pseudopot. screening):
 2s( 2.00)                                                            
 2p( 2.00)                                                            
Vna: chval, zval:    4.00000   4.00000

Vna:  Cut-off radius for the neutral-atom potential:   5.658549
comcore: Pseudo-core radius Rcore=  1.791422

atom: _________________________________________________________________________

prinput: Basis input ----------------------------------------------------------

PAO.BasisType split     

%block ChemicalSpeciesLabel
    1    7 N                       # Species index, atomic number, species label
    2    6 C                       # Species index, atomic number, species label
%endblock ChemicalSpeciesLabel

%block PAO.Basis                 # Define Basis set
N                     2                    # Species label, number of l-shells
 n=2   0   2                         # n, l, Nzeta 
   4.071      2.905   
   1.000      1.000   
 n=2   1   2 P   1                   # n, l, Nzeta, Polarization, NzetaPol
   4.973      3.054   
   1.000      1.000   
C                     2                    # Species label, number of l-shells
 n=2   0   2                         # n, l, Nzeta 
   4.633      3.432   
   1.000      1.000   
 n=2   1   2 P   1                   # n, l, Nzeta, Polarization, NzetaPol
   5.659      3.653   
   1.000      1.000   
%endblock PAO.Basis

prinput: ----------------------------------------------------------------------

coor:   Atomic-coordinates input format  =     Fractional

siesta: Atomic coordinates (Bohr) and species
siesta:     -2.35420  38.89134   0.00000  1        1
siesta:     -2.35420  41.57980   0.00000  1        2
siesta:      2.30256  38.89134   0.00000  1        3
siesta:      2.30256  41.57980   0.00000  1        4
siesta:      9.28770  21.41544   0.00000  1        5
siesta:      4.63094  21.41544   0.00000  1        6
siesta:      6.95932  22.75985   0.00000  1        7
siesta:      6.95932  25.44831   0.00000  1        8
siesta:      2.30256  22.75985   0.00000  1        9
siesta:      2.30256  25.44831   0.00000  1       10
siesta:     -9.33934  18.72698   0.00000  1       11
siesta:     -9.33934  21.41544   0.00000  1       12
siesta:     -7.01096  22.75985   0.00000  1       13
siesta:     -7.01096  25.44831   0.00000  1       14
siesta:    -11.66772  22.75985   0.00000  1       15
siesta:    -11.66772  25.44831   0.00000  1       16
siesta:     -9.33934  26.79272   0.00000  1       17
siesta:     -9.33934  29.48119   0.00000  1       18
siesta:      4.63094  26.79272   0.00000  1       19
siesta:     -0.02582  26.79272   0.00000  1       20
siesta:     -4.68258  29.48119   0.00000  1       21
siesta:     -2.35420  30.82560   0.00000  1       22
siesta:     -0.02582  34.85847   0.00000  1       23
siesta:     -0.02582  37.54693   0.00000  1       24
siesta:     -0.02582  42.92421   0.00000  1       25
siesta:     -0.02582  45.61267   0.00000  1       26
siesta:     -0.02582   2.59549   0.00000  2       27
siesta:     -0.02582   5.28395   0.00000  2       28
siesta:      4.63094  34.85847   0.00000  2       29
siesta:      4.63094  37.54693   0.00000  2       30
siesta:      6.95932  30.82560   0.00000  2       31
siesta:      6.95932  33.51406   0.00000  2       32
siesta:      9.28770  26.79272   0.00000  2       33
siesta:      9.28770  29.48119   0.00000  2       34
siesta:     -4.68258  34.85847   0.00000  2       35
siesta:     -4.68258  37.54693   0.00000  2       36
siesta:      2.30256   6.62836   0.00000  2       37
siesta:      2.30256   9.31683   0.00000  2       38
siesta:      4.63094  10.66124   0.00000  2       39
siesta:      4.63094  13.34970   0.00000  2       40
siesta:      6.95932  14.69411   0.00000  2       41
siesta:      6.95932  17.38257   0.00000  2       42
siesta:      9.28770  18.72698   0.00000  2       43
siesta:     11.61608  22.75985   0.00000  2       44
siesta:     11.61608  25.44831   0.00000  2       45
siesta:     -2.35420   6.62836   0.00000  2       46
siesta:     -2.35420   9.31683   0.00000  2       47
siesta:     -0.02582  10.66124   0.00000  2       48
siesta:     -0.02582  13.34970   0.00000  2       49
siesta:      2.30256  14.69411   0.00000  2       50
siesta:      2.30256  17.38257   0.00000  2       51
siesta:      4.63094  18.72698   0.00000  2       52
siesta:     -4.68258  10.66124   0.00000  2       53
siesta:     -4.68258  13.34970   0.00000  2       54
siesta:     -2.35420  14.69411   0.00000  2       55
siesta:     -2.35420  17.38257   0.00000  2       56
siesta:     -0.02582  18.72698   0.00000  2       57
siesta:     -0.02582  21.41544   0.00000  2       58
siesta:     -7.01096  14.69411   0.00000  2       59
siesta:     -7.01096  17.38257   0.00000  2       60
siesta:     -4.68258  18.72698   0.00000  2       61
siesta:     -4.68258  21.41544   0.00000  2       62
siesta:     -2.35420  22.75985   0.00000  2       63
siesta:     -2.35420  25.44831   0.00000  2       64
siesta:      4.63094  29.48119   0.00000  2       65
siesta:     -0.02582  29.48119   0.00000  2       66
siesta:     -4.68258  26.79272   0.00000  2       67
siesta:      2.30256  30.82560   0.00000  2       68
siesta:      2.30256  33.51406   0.00000  2       69
siesta:     -2.35420  33.51406   0.00000  2       70
siesta:     -7.01096  30.82560   0.00000  2       71
siesta:     -7.01096  33.51406   0.00000  2       72

siesta: System type = slab      

initatomlists: Number of atoms, orbitals, and projectors:     72   936  1152

siesta: ******************** Simulation parameters ****************************
siesta:
siesta: The following are some of the parameters of the simulation.
siesta: A complete list of the parameters used, including default values,
siesta: can be found in file out.fdf
siesta:
redata: Non-Collinear-spin run           =     F
redata: SpinPolarized (Up/Down) run      =     F
redata: Number of spin components        =     1
redata: Long output                      =     F
redata: Number of Atomic Species         =        2
redata: Charge density info will appear in .RHO file
redata: Write Mulliken Pop.              =     NO
redata: Mesh Cutoff                      =   200.0000  Ry
redata: Net charge of the system         =     0.0000 |e|
redata: Max. number of SCF Iter          =      500
redata: SCF convergence failure will abort job
redata: Performing Pulay mixing using    =    10 iterations
redata: Mix DM in first SCF step ?       =     F
redata: Write Pulay info on disk?        =     F
redata: Discard 1st Pulay DM after  kick =     F
redata: New DM Mixing Weight             =     0.0500
redata: New DM Occupancy tolerance       = 0.000000000001
redata: No kicks to SCF
redata: DM Mixing Weight for Kicks       =     0.5000
redata: DM Tolerance for SCF             =     0.000100
redata: Require Energy convergence for SCF =     F
redata: DM Energy tolerance for SCF      =     0.000100 eV
redata: Require Harris convergence for SCF =     F
redata: DM Harris energy tolerance for SCF =     0.000100 eV
redata: Using Saved Data (generic)   =     F
redata: Use continuation files for DM    =     T
redata: Neglect nonoverlap interactions  =     F
redata: Method of Calculation            =     Diagonalization
redata: Divide and Conquer               =     T
redata: Electronic Temperature           =     0.0019  Ry
redata: Fix the spin of the system       =     F
redata: Dynamics option                  =     Verlet MD run
redata: Initial MD time step             =        1
redata:   Final MD time step             =        1
redata: Length of MD time step           =     1.0000  fs
redata: Initial Temperature of MD run    =     0.0000  K
redata: Perform a MD quench              =     F
redata: ***********************************************************************
Total number of electrons:   314.000000
Total ionic charge:   314.000000

* ProcessorY, Blocksize:    2  24

k-point displ. along   1 input, could be:     0.50    0.00
k-point displ. along   2 input, could be:     0.50    0.00
 Kpoints in:          231 . Kpoints trimmed:          231

siesta: k-grid: Number of k-points =   231
siesta: k-grid: Cutoff (effective) =     5.000 Ang
siesta: k-grid: Supercell and displacements
siesta: k-grid:   21   0   0      0.500
siesta: k-grid:    0  21   0      0.500
siesta: k-grid:    0   0   1      0.000
Naive supercell factors:     2    2    2

superc: Internal auxiliary supercell:     2 x     2 x     2  =       8
superc: Number of atoms, orbitals, and projectors:    576   7488   9216

* Maximum dynamic memory allocated =     4 MB

siesta:                 ==============================
                            Begin MD step =      1
                        ==============================

superc: Internal auxiliary supercell:     2 x     2 x     2  =       8
superc: Number of atoms, orbitals, and projectors:    576   7488   9216

outcell: Unit cell vectors (Ang):
       12.804619    7.392750    0.000000
        0.000000   14.785500    0.000000
        0.000000    0.000000   10.000000

outcell: Cell vector modules (Ang)   :   14.785500   14.785500   10.000000
outcell: Cell angles (23,13,12) (deg):     90.0000     90.0000     60.0000
outcell: Cell volume (Ang**3)        :   1893.2269
New_DM. Step:     1
Initializing Density Matrix...

InitMesh: MESH =   120 x   120 x    90 =     1296000
InitMesh: Mesh cutoff (required, used) =   200.000   223.865 Ry

* Maximum dynamic memory allocated =   179 MB

stepf: Fermi-Dirac step function

siesta: Program's energy decomposition (eV):
siesta: Ebs     =     -6368.236210
siesta: Eions   =     22582.429020
siesta: Ena     =      4983.959002
siesta: Ekin    =      8560.167659
siesta: Enl     =      -125.189486
siesta: DEna    =        -0.000014
siesta: DUscf   =         0.000000
siesta: DUext   =         0.000000
siesta: Exc     =     -4823.760672
siesta: eta*DQ  =         0.000000
siesta: Emadel  =         0.000000
siesta: Emeta   =         0.000000
siesta: Emolmec =         0.000000
siesta: Ekinion =         0.000000
siesta: Eharris =    -13591.975503
siesta: Etot    =    -13987.252532
siesta: FreeEng =    -13987.252532

siesta: iscf   Eharris(eV)      E_KS(eV)   FreeEng(eV)   dDmax  Ef(eV)
siesta:    1   -13591.9755   -13987.2525   -13987.2525  8.5085 -6.2789
timer: Routine,Calls,Time,% = IterSCF        1    4100.300  99.70
elaps: Routine,Calls,Wall,% = IterSCF        1     513.181  99.70
siesta:    2   -18526.7724   -12926.8787   -12926.9491 13.1672 -5.5417
siesta:    3   -13523.5509   -13734.4326   -13734.4334  2.5347 -4.6163
siesta:    4   -13475.0281   -13607.4097   -13607.4417  1.1351 -4.0270
siesta:    5   -13438.7397   -13535.0355   -13535.0878  0.8435 -3.7278
siesta:    6   -13433.6595   -13515.6482   -13515.7058  0.8224 -3.7773
siesta:    7   -13430.8082   -13501.7835   -13501.8381  0.8989 -3.7999
siesta:    8   -13427.8924   -13477.0705   -13477.1058  0.5143 -3.8956
siesta:    9   -13426.9961   -13460.6491   -13460.6763  0.4670 -3.7899
siesta:   10   -13427.3840   -13442.8970   -13442.9477  0.5330 -3.7489
siesta:   11   -13426.6050   -13428.4243   -13428.4677  0.3501 -3.7248
siesta:   12   -13426.7312   -13420.5487   -13420.6000  0.4411 -3.7288
siesta:   13   -13426.4614   -13418.4460   -13418.5208  0.4370 -3.7600
siesta:   14   -13426.1985   -13419.0205   -13419.0929  0.1257 -3.7447
siesta:   15   -13426.0077   -13420.4790   -13420.5501  0.0691 -3.7716
siesta:   16   -13425.9714   -13422.4390   -13422.5045  0.0982 -3.7713
siesta:   17   -13425.9540   -13423.7722   -13423.8406  0.0839 -3.7726
siesta:   18   -13425.9363   -13425.0985   -13425.1606  0.0487 -3.7805
siesta:   19   -13425.9291   -13426.2312   -13426.2982  0.0582 -3.7831
siesta:   20   -13425.9293   -13426.4529   -13426.5214  0.0373 -3.7751
siesta:   21   -13425.9264   -13426.4526   -13426.5172  0.0302 -3.7751
siesta:   22   -13425.9238   -13426.0809   -13426.1477  0.0275 -3.7710
siesta:   23   -13425.9236   -13425.8979   -13425.9647  0.0209 -3.7686
siesta:   24   -13425.9236   -13425.8363   -13425.9021  0.0151 -3.7678
siesta:   25   -13425.9237   -13425.8933   -13425.9591  0.0073 -3.7679
siesta:   26   -13425.9233   -13425.9466   -13426.0120  0.0025 -3.7684
siesta:   27   -13425.9233   -13425.9686   -13426.0344  0.0021 -3.7683
siesta:   28   -13425.9232   -13425.9737   -13426.0394  0.0015 -3.7689
siesta:   29   -13425.9232   -13425.9530   -13426.0188  0.0012 -3.7689
siesta:   30   -13425.9233   -13425.9388   -13426.0046  0.0005 -3.7689
siesta:   31   -13425.9232   -13425.9338   -13425.9995  0.0006 -3.7689
siesta:   32   -13425.9233   -13425.9343   -13426.0001  0.0007 -3.7689
siesta:   33   -13425.9233   -13425.9263   -13425.9920  0.0004 -3.7690
siesta:   34   -13425.9233   -13425.9235   -13425.9892  0.0001 -3.7690
siesta:   35   -13425.9233   -13425.9220   -13425.9877  0.0001 -3.7690

siesta: E_KS(eV) =           -13425.9216

siesta: E_KS - E_eggbox =    -13425.9216

siesta: Atomic forces (eV/Ang):
----------------------------------------
   Tot   -0.369505    0.141514    0.000000
----------------------------------------
   Max  687.518279
   Res  177.271250    sqrt( Sum f_i^2 / 3N )
----------------------------------------
   Max  687.518279    constrained

Stress-tensor-Voigt (kbar):     -596.57    -3213.70        0.01       10.42        0.00        0.00
(Free)E + p*V (eV/cell)   -11925.1949
Target enthalpy (eV/cell)   -13425.9872

siesta: Stress tensor (static) (eV/Ang**3):
        -0.372346    0.006503    0.000000
         0.006503   -2.005813    0.000000
         0.000000    0.000000    0.000009

siesta: Pressure (static):       1270.08570106  kBar

siesta: Stress tensor (total) (eV/Ang**3):
        -0.372346    0.006503    0.000000
         0.006503   -2.005813    0.000000
         0.000000    0.000000    0.000009

siesta: Pressure (total):       1270.08570106  kBar

siesta: Temp_ion =       0.000 K

* Maximum dynamic memory allocated =   196 MB
Computing bands...

siesta: Program's energy decomposition (eV):
siesta: Ebs     =     -5167.897543
siesta: Eions   =     22582.429020
siesta: Ena     =      4983.959002
siesta: Ekin    =     11685.303755
siesta: Enl     =     -1837.150371
siesta: DEna    =      -789.979962
siesta: DUscf   =       111.981815
siesta: DUext   =         0.000000
siesta: Exc     =     -4997.606777
siesta: eta*DQ  =         0.000000
siesta: Emadel  =         0.000000
siesta: Emeta   =         0.000000
siesta: Emolmec =         0.000000
siesta: Ekinion =         0.000000
siesta: Eharris =    -13425.923273
siesta: Etot    =    -13425.921557
siesta: FreeEng =    -13425.987246

siesta: Final energy (eV):
siesta:  Band Struct. =   -5167.897543
siesta:       Kinetic =   11685.303755
siesta:       Hartree =   37296.701240
siesta:    Ext. field =       0.000000
siesta:   Exch.-corr. =   -4997.606777
siesta:  Ion-electron =  -85756.796668
siesta:       Ion-ion =   28346.476893
siesta:       Ekinion =       0.000000
siesta:         Total =  -13425.921557

siesta: Atomic forces (eV/Ang):
siesta:      1   -2.876250  105.414986    0.000000
siesta:      2  -25.021310 -658.009972    0.000000
siesta:      3    3.275186  104.928444    0.000000
siesta:      4   24.409897 -657.833061    0.000000
siesta:      5    3.580687   -4.710362    0.000000
siesta:      6    0.003711   -0.183856    0.000000
siesta:      7   -2.623717    2.353872    0.000000
siesta:      8   -0.288770   -0.344520    0.000000
siesta:      9    1.044416   -0.760862    0.000000
siesta:     10    1.789625   -0.705858    0.000000
siesta:     11    0.725020    1.564323    0.000000
siesta:     12   -0.371954   -1.070680    0.000000
siesta:     13    0.567737   -0.039968    0.000000
siesta:     14    0.787347    0.719686    0.000000
siesta:     15    1.610480    1.681310    0.000000
siesta:     16    1.810342   -1.814945    0.000000
siesta:     17   -0.440295    0.728927    0.000000
siesta:     18    1.481400   -1.219333    0.000000
siesta:     19    0.108369    0.291435    0.000000
siesta:     20   -0.822588    2.900944    0.000000
siesta:     21   -1.920198   -5.625437    0.000000
siesta:     22  -29.156977   11.048363    0.000000
siesta:     23    0.043727  110.236727    0.000000
siesta:     24    1.204963 -663.327559    0.000000
siesta:     25    0.129470  108.343707    0.000000
siesta:     26    0.139933 -646.419278    0.000000
siesta:     27  -11.918028  544.927671    0.000000
siesta:     28   -0.072442 -124.017574    0.000000
siesta:     29   27.452553    4.822058    0.000000
siesta:     30   32.417292 -555.292083    0.000000
siesta:     31    1.853961   -0.504326    0.000000
siesta:     32   -3.288435    1.522845    0.000000
siesta:     33    0.969892    1.393268    0.000000
siesta:     34   -0.981364    0.019721    0.000000
siesta:     35  -27.022071    5.084184    0.000000
siesta:     36  -32.478159 -555.346777    0.000000
siesta:     37   -0.866299  547.249422    0.000000
siesta:     38    0.197211 -122.052226    0.000000
siesta:     39   18.883540  552.487834    0.000000
siesta:     40   26.093498   -4.200955    0.000000
siesta:     41   -2.978366   -0.623410    0.000000
siesta:     42    0.349456    0.475742    0.000000
siesta:     43    0.872716    2.520104    0.000000
siesta:     44   -1.681028    2.997064    0.000000
siesta:     45   -0.653325   -4.420419    0.000000
siesta:     46   -5.825981  550.876361    0.000000
siesta:     47   -1.022111 -122.110906    0.000000
siesta:     48   -1.256602  671.168566    0.000000
siesta:     49   -0.052568 -115.620824    0.000000
siesta:     50   -0.723335  684.033282    0.000000
siesta:     51   24.452156   -2.945445    0.000000
siesta:     52   -1.772489    3.215256    0.000000
siesta:     53  -18.093050  551.672384    0.000000
siesta:     54  -26.053762   -3.928608    0.000000
siesta:     55    1.240194  685.524127    0.000000
siesta:     56  -24.376347   -4.190476    0.000000
siesta:     57    0.004611  687.518279    0.000000
siesta:     58   -0.101819    0.151189    0.000000
siesta:     59    2.435625   -0.452921    0.000000
siesta:     60   -2.011319    1.067375    0.000000
siesta:     61    1.048533    4.562063    0.000000
siesta:     62   -0.660446   -0.276210    0.000000
siesta:     63    0.185499   -0.279737    0.000000
siesta:     64   -1.001179    0.717651    0.000000
siesta:     65   -2.143456   -2.646497    0.000000
siesta:     66   14.384178 -572.957650    0.000000
siesta:     67    0.581369    0.172487    0.000000
siesta:     68   25.000070    5.562131    0.000000
siesta:     69   25.540546 -562.837802    0.000000
siesta:     70  -17.015468 -562.119472    0.000000
siesta:     71   -1.737711   -0.518107    0.000000
siesta:     72    2.264501   -0.404161    0.000000
siesta: ----------------------------------------
siesta:    Tot   -0.369505    0.141514    0.000000

siesta: Stress tensor (static) (eV/Ang**3):
siesta:    -0.372346    0.006503    0.000000
siesta:     0.006503   -2.005813    0.000000
siesta:     0.000000    0.000000    0.000009

siesta: Cell volume =       1893.226884 Ang**3

siesta: Pressure (static):
siesta:                Solid            Molecule  Units
siesta:           0.00863370          0.14121229  Ry/Bohr**3
siesta:           0.79271657         12.96563260  eV/Ang**3
siesta:        1270.08570106      20773.45813171  kBar
(Free)E+ p_basis*V_orbitals  =      -13398.966682
(Free)Eharris+ p_basis*V_orbitals  =      -13398.967982

siesta: Electric dipole (a.u.)  =    0.000000    0.000000    0.000000
siesta: Electric dipole (Debye) =    0.000000    0.000000    0.000000

* Maximum dynamic memory allocated : Node    0 =   196 MB
* Maximum dynamic memory allocated : Node    1 =    70 MB
* Maximum dynamic memory allocated : Node    2 =    72 MB
* Maximum dynamic memory allocated : Node    3 =   187 MB
* Maximum dynamic memory allocated : Node    4 =   183 MB
* Maximum dynamic memory allocated : Node    5 =    70 MB
* Maximum dynamic memory allocated : Node    6 =    71 MB
* Maximum dynamic memory allocated : Node    7 =   167 MB

* Maximum memory occured during matrixMtoO                    

timer: CPU execution times:
timer:  Routine       Calls   Time/call    Tot.time        %
timer:  siesta            1  140209.717  140209.717   100.00
timer:  Setup             1       3.857       3.857     0.00
timer:  bands             3     270.001     810.003     0.58
timer:  writewave         1       0.044       0.044     0.00
timer:  KSV_init          1       0.003       0.003     0.00
timer:  IterMD            1  139390.158  139390.158    99.42
timer:  hsparse           1       0.232       0.232     0.00
timer:  overlap           1       7.710       7.710     0.01
timer:  IterSCF          35    3977.996  139229.870    99.30
timer:  kinefsm           2       3.948       7.896     0.01
timer:  nlefsm            2      18.432      36.863     0.03
timer:  DHSCF            36      84.275    3033.891     2.16
timer:  DHSCF1            1       0.763       0.763     0.00
timer:  DHSCF2            1      32.595      32.595     0.02
timer:  REORD           290       0.010       2.909     0.00
timer:  POISON           37       2.243      82.985     0.06
timer:  DHSCF3           36      82.495    2969.809     2.12
timer:  rhoofd           36      15.916     572.984     0.41
timer:  cellXC           36       3.442     123.925     0.09
timer:  vmat             36      40.513    1458.463     1.04
timer:  MolMec            2       0.001       0.002     0.00
timer:  diagon           35    3892.059  136222.077    97.16
timer:  c-eigval       8206       6.686   54867.511    39.13
timer:  c-buildHS      8206       0.109     897.165     0.64
timer:  cdiag         16291       6.870  111921.890    79.82
timer:  cdiag1        16291       0.426    6946.486     4.95
timer:  cdiag2        16291       1.911   31135.835    22.21
timer:  cdiag3        16291       3.965   64600.922    46.07
timer:  cdiag4        16291       0.205    3336.184     2.38
timer:  c-eigvec       8085       7.228   58440.520    41.68
timer:  c-buildD       8085       2.929   23678.946    16.89
timer:  DHSCF4            1      28.791      28.791     0.02
timer:  dfscf             1      27.035      27.035     0.02
timer:  overfsm           1       0.393       0.393     0.00
timer:  optical           1       5.004       5.004     0.00
  

elaps: ELAPSED times:
elaps:  Routine       Calls   Time/call    Tot.time        %
elaps:  siesta            1   17545.098   17545.098   100.00
elaps:  Setup             1       0.500       0.500     0.00
elaps:  bands             3      33.802     101.406     0.58
elaps:  writewave         1       0.006       0.006     0.00
elaps:  KSV_init          1       0.001       0.001     0.00
elaps:  IterMD            1   17442.531   17442.531    99.42
elaps:  hsparse           1       0.028       0.028     0.00
elaps:  overlap           1       0.968       0.968     0.01
elaps:  IterSCF          35     497.788   17422.594    99.30
elaps:  kinefsm           2       0.496       0.992     0.01
elaps:  nlefsm            2       2.399       4.798     0.03
elaps:  DHSCF            36      10.650     383.383     2.19
elaps:  DHSCF1            1       0.098       0.098     0.00
elaps:  DHSCF2            1       4.074       4.074     0.02
elaps:  REORD           290       0.001       0.371     0.00
elaps:  POISON           37       0.281      10.387     0.06
elaps:  DHSCF3           36      10.320     371.534     2.12
elaps:  rhoofd           36       4.468     160.842     0.92
elaps:  cellXC           36       0.430      15.478     0.09
elaps:  vmat             36       5.068     182.441     1.04
elaps:  MolMec            2       0.000       0.000     0.00
elaps:  diagon           35     487.024   17045.853    97.15
elaps:  c-eigval       8206       0.837    6865.321    39.13
elaps:  c-buildHS      8206       0.015     122.903     0.70
elaps:  cdiag         16291       0.859   14000.260    79.80
elaps:  cdiag1        16291       0.053     859.474     4.90
elaps:  cdiag2        16291       0.239    3895.835    22.20
elaps:  cdiag3        16291       0.497    8094.333    46.13
elaps:  cdiag4        16291       0.026     418.638     2.39
elaps:  c-eigvec       8085       0.909    7347.192    41.88
elaps:  c-buildD       8085       0.362    2928.527    16.69
elaps:  DHSCF4            1       7.418       7.418     0.04
elaps:  dfscf             1       7.044       7.044     0.04
elaps:  overfsm           1       0.048       0.048     0.00
elaps:  optical           1       0.001       0.001     0.00
  
>> End of run:  20-APR-2016  21:04:30
