Siesta Version:                                        siesta-3.2-pl-3
Architecture  : x86_64-unknown-linux-gnu--unknown
Compiler flags: mpiifort -g -O2 -fPIC -xSSE4.1 -fp-model source -shared-intel 
PARALLEL version

* Running on    8 nodes in parallel
>> Start of run:  26-APR-2016   2:11:19

                           ***********************       
                           *  WELCOME TO SIESTA  *       
                           ***********************       

reinit: Reading from standard input
************************** Dump of input data file ****************************
#(1) General system descriptors
SystemName            GRP_doping    # Descriptive name of the system
SystemLabel           GRP_doping    # Short name for naming files
%include STRUCT.fdf
%include KPT.fdf
%include BASIS.fdf
#%include TS.fdf # for transiesta calculation
#(4) DFT, Grid, SCF
XC.functional         GGA           # LDA or GGA (default = LDA)
XC.authors            PBE           # CA (Ceperley-Aldr) = PZ
                                    #    (Perdew-Zunger) - LDA - Default
                                    # PW92 (Perdew-Wang-92) - LDA
                                    # PBE (Perdew-Burke-Ernzerhof) - GGA
MeshCutoff            200.000000    Ry      # Default: 50.0 Ry ~ 0.444 Bohr
                                    #         100.0 Ry ~ 0.314 Bohr
MaxSCFIterations      500           # Default: 50
DM.MixingWeight       0.05          # Default: 0.25
DM.NumberPulay        10            # Default: 0
DM.PulayOnFile        F             # SystemLabel.P1, SystemLabel.P2
DM.Tolerance          1.d-4         # Default: 1.d-4
DM.UseSaveDM          .true.        # because of the bug
SCFMustConverge       .true.
NeglNonOverlapInt     F             # Default: F
#(5) Eigenvalue problem: order-N or diagonalization
SolutionMethod        Diagon        # or Transiesta
ElectronicTemperature 300.0 K       # Default: 300.0 K
#(6) Molecular dynamics and relaxations
#MD.TypeOfRun          CG            # Type of dynamics:
#MD.VariableCell       F
#MD.NumCGsteps         0           # 0 for single-point / 100 for gopt
#MD.MaxCGDispl         0.2 Bohr      # Default: 0.2 Bohr
#MD.MaxForceTol        0.02 eV/Ang   # Default: 0.04 eV/Ang
#MD.MaxStressTol       1.0 GPa       # Default: 1.0 GPa
# Geometry Constraints
#%block GeometryConstraints
#	position from 1 to 44
#%endblock GeometryConstraints
BandLinesScale   pi/a
%block BandLines
 1   0.00000000  0.00000000  0.00000000
50   0.00000000  0.07809418  0.00000000
50   0.04509075  0.07809242  0.00000000
20   0.00000000  0.00000000  0.00000000
%endblock BandLines
************************** End of input data file *****************************

reinit: -----------------------------------------------------------------------
reinit: System Name: GRP_doping
reinit: -----------------------------------------------------------------------
reinit: System Label: GRP_doping                                                  
reinit: -----------------------------------------------------------------------

initatom: Reading input for the pseudopotentials and atomic orbitals ----------
 Species number:            1  Label: N Atomic number:           7
 Species number:            2  Label: C Atomic number:           6
Ground state valence configuration:   2s02  2p03
Reading pseudopotential information in formatted form from N.psf

Valence configuration for pseudopotential generation:
2s( 2.00) rc: 1.48
2p( 3.00) rc: 1.48
3d( 0.00) rc: 1.48
4f( 0.00) rc: 1.48
Ground state valence configuration:   2s02  2p02
Reading pseudopotential information in formatted form from C.psf

Valence configuration for pseudopotential generation:
2s( 2.00) rc: 1.54
2p( 2.00) rc: 1.54
3d( 0.00) rc: 1.54
4f( 0.00) rc: 1.54
For N, standard SIESTA heuristics set lmxkb to 3
 (one more than the basis l, including polarization orbitals).
Use PS.lmax or PS.KBprojectors blocks to override.
For C, standard SIESTA heuristics set lmxkb to 3
 (one more than the basis l, including polarization orbitals).
Use PS.lmax or PS.KBprojectors blocks to override.

<basis_specs>
===============================================================================
N                    Z=   7    Mass=  14.010        Charge= 0.17977+309
Lmxo=1 Lmxkb= 3    BasisType=split      Semic=F
L=0  Nsemic=0  Cnfigmx=2
          n=1  nzeta=2  polorb=0
            splnorm:   0.15000    
               vcte:    0.0000    
               rinn:    0.0000    
                rcs:    0.0000      0.0000    
            lambdas:    1.0000      1.0000    
L=1  Nsemic=0  Cnfigmx=2
          n=1  nzeta=2  polorb=1
            splnorm:   0.15000    
               vcte:    0.0000    
               rinn:    0.0000    
                rcs:    0.0000      0.0000    
            lambdas:    1.0000      1.0000    
-------------------------------------------------------------------------------
L=0  Nkbl=1  erefs: 0.17977+309
L=1  Nkbl=1  erefs: 0.17977+309
L=2  Nkbl=1  erefs: 0.17977+309
L=3  Nkbl=1  erefs: 0.17977+309
===============================================================================
</basis_specs>

atom: Called for N                     (Z =   7)

read_vps: Pseudopotential generation method:
read_vps: ATM3      Troullier-Martins                       
Total valence charge:    5.00000

read_vps: Pseudopotential includes a core correction:
read_vps: Pseudo-core for xc-correction

xc_check: Exchange-correlation functional:
xc_check: GGA Perdew, Burke & Ernzerhof 1996
V l=0 = -2*Zval/r beyond r=  1.4606
V l=1 = -2*Zval/r beyond r=  1.4606
V l=2 = -2*Zval/r beyond r=  1.4606
V l=3 = -2*Zval/r beyond r=  1.4606
All V_l potentials equal beyond r=  1.4606
This should be close to max(r_c) in ps generation
All pots = -2*Zval/r beyond r=  1.4606

VLOCAL1: 99.0% of the norm of Vloc inside     20.347 Ry
VLOCAL1: 99.9% of the norm of Vloc inside     46.372 Ry
atom: Maximum radius for 4*pi*r*r*local-pseudopot. charge    1.76189
atom: Maximum radius for r*vlocal+2*Zval:    1.53550
GHOST: No ghost state for L =  0
GHOST: No ghost state for L =  1
GHOST: No ghost state for L =  2
GHOST: No ghost state for L =  3

KBgen: Kleinman-Bylander projectors: 
   l= 0   rc=  1.634559   el= -1.363963   Ekb=  5.296955   kbcos=  0.335621
   l= 1   rc=  1.614250   el= -0.521451   Ekb= -5.259161   kbcos= -0.433408
   l= 2   rc=  1.718383   el=  0.001991   Ekb= -1.271464   kbcos= -0.007566
   l= 3   rc=  1.761893   el=  0.003093   Ekb= -0.494769   kbcos= -0.001015

KBgen: Total number of  Kleinman-Bylander projectors:   16
atom: -------------------------------------------------------------------------

atom: SANKEY-TYPE ORBITALS:
atom: Selected multiple-zeta basis: split     

SPLIT: Orbitals with angular momentum L= 0

SPLIT: Basis orbitals for state 2s

SPLIT: PAO cut-off radius determined from an
SPLIT: energy shift=  0.007350 Ry

   izeta = 1
                 lambda =    1.000000
                     rc =    4.071465
                 energy =   -1.356470
                kinetic =    1.176977
    potential(screened) =   -2.533447
       potential(ionic) =   -8.057990

   izeta = 2
                 rmatch =    2.905100
              splitnorm =    0.150000
                 energy =   -1.158343
                kinetic =    1.813009
    potential(screened) =   -2.971352
       potential(ionic) =   -8.901931

SPLIT: Orbitals with angular momentum L= 1

SPLIT: Basis orbitals for state 2p

SPLIT: PAO cut-off radius determined from an
SPLIT: energy shift=  0.007350 Ry

   izeta = 1
                 lambda =    1.000000
                     rc =    4.972977
                 energy =   -0.513884
                kinetic =    3.441732
    potential(screened) =   -3.955616
       potential(ionic) =   -9.287901

   izeta = 2
                 rmatch =    3.054066
              splitnorm =    0.150000
                 energy =   -0.318226
                kinetic =    5.125348
    potential(screened) =   -5.443573
       potential(ionic) =  -11.380999

POLgen: Perturbative polarization orbital with L=  2

POLgen: Polarization orbital for state 2p

   izeta = 1
                     rc =    4.972977
                 energy =    1.607437
                kinetic =    3.268125
    potential(screened) =   -1.660688
       potential(ionic) =   -5.973652
atom: Total number of Sankey-type orbitals: 13

atm_pop: Valence configuration (for local Pseudopot. screening):
 2s( 2.00)                                                            
 2p( 3.00)                                                            
Vna: chval, zval:    5.00000   5.00000

Vna:  Cut-off radius for the neutral-atom potential:   4.972977
comcore: Pseudo-core radius Rcore=  1.554824

atom: _________________________________________________________________________

<basis_specs>
===============================================================================
C                    Z=   6    Mass=  12.010        Charge= 0.17977+309
Lmxo=1 Lmxkb= 3    BasisType=split      Semic=F
L=0  Nsemic=0  Cnfigmx=2
          n=1  nzeta=2  polorb=0
            splnorm:   0.15000    
               vcte:    0.0000    
               rinn:    0.0000    
                rcs:    0.0000      0.0000    
            lambdas:    1.0000      1.0000    
L=1  Nsemic=0  Cnfigmx=2
          n=1  nzeta=2  polorb=1
            splnorm:   0.15000    
               vcte:    0.0000    
               rinn:    0.0000    
                rcs:    0.0000      0.0000    
            lambdas:    1.0000      1.0000    
-------------------------------------------------------------------------------
L=0  Nkbl=1  erefs: 0.17977+309
L=1  Nkbl=1  erefs: 0.17977+309
L=2  Nkbl=1  erefs: 0.17977+309
L=3  Nkbl=1  erefs: 0.17977+309
===============================================================================
</basis_specs>

atom: Called for C                     (Z =   6)

read_vps: Pseudopotential generation method:
read_vps: ATM3      Troullier-Martins                       
Total valence charge:    4.00000

read_vps: Pseudopotential includes a core correction:
read_vps: Pseudo-core for xc-correction

xc_check: Exchange-correlation functional:
xc_check: GGA Perdew, Burke & Ernzerhof 1996
V l=0 = -2*Zval/r beyond r=  1.5227
V l=1 = -2*Zval/r beyond r=  1.5227
V l=2 = -2*Zval/r beyond r=  1.5227
V l=3 = -2*Zval/r beyond r=  1.5038
All V_l potentials equal beyond r=  1.5227
This should be close to max(r_c) in ps generation
All pots = -2*Zval/r beyond r=  1.5227

VLOCAL1: 99.0% of the norm of Vloc inside     18.722 Ry
VLOCAL1: 99.9% of the norm of Vloc inside     42.668 Ry
atom: Maximum radius for 4*pi*r*r*local-pseudopot. charge    1.83678
atom: Maximum radius for r*vlocal+2*Zval:    1.58088
GHOST: No ghost state for L =  0
GHOST: No ghost state for L =  1
GHOST: No ghost state for L =  2
GHOST: No ghost state for L =  3

KBgen: Kleinman-Bylander projectors: 
   l= 0   rc=  1.704034   el= -1.009801   Ekb=  5.335044   kbcos=  0.316824
   l= 1   rc=  1.704034   el= -0.388707   Ekb= -3.785862   kbcos= -0.366464
   l= 2   rc=  1.791422   el=  0.001971   Ekb= -0.970471   kbcos= -0.009212
   l= 3   rc=  1.859892   el=  0.003065   Ekb= -0.399525   kbcos= -0.001223

KBgen: Total number of  Kleinman-Bylander projectors:   16
atom: -------------------------------------------------------------------------

atom: SANKEY-TYPE ORBITALS:
atom: Selected multiple-zeta basis: split     

SPLIT: Orbitals with angular momentum L= 0

SPLIT: Basis orbitals for state 2s

SPLIT: PAO cut-off radius determined from an
SPLIT: energy shift=  0.007350 Ry

   izeta = 1
                 lambda =    1.000000
                     rc =    4.632753
                 energy =   -1.002270
                kinetic =    0.855760
    potential(screened) =   -1.858031
       potential(ionic) =   -5.417575

   izeta = 2
                 rmatch =    3.431921
              splitnorm =    0.150000
                 energy =   -0.867111
                kinetic =    1.300804
    potential(screened) =   -2.167915
       potential(ionic) =   -5.962684

SPLIT: Orbitals with angular momentum L= 1

SPLIT: Basis orbitals for state 2p

SPLIT: PAO cut-off radius determined from an
SPLIT: energy shift=  0.007350 Ry

   izeta = 1
                 lambda =    1.000000
                     rc =    5.658549
                 energy =   -0.381140
                kinetic =    2.399701
    potential(screened) =   -2.780841
       potential(ionic) =   -6.206085

   izeta = 2
                 rmatch =    3.653288
              splitnorm =    0.150000
                 energy =   -0.249149
                kinetic =    3.542762
    potential(screened) =   -3.791911
       potential(ionic) =   -7.581078

POLgen: Perturbative polarization orbital with L=  2

POLgen: Polarization orbital for state 2p

   izeta = 1
                     rc =    5.658549
                 energy =    1.109913
                kinetic =    2.304789
    potential(screened) =   -1.194876
       potential(ionic) =   -4.013592
atom: Total number of Sankey-type orbitals: 13

atm_pop: Valence configuration (for local Pseudopot. screening):
 2s( 2.00)                                                            
 2p( 2.00)                                                            
Vna: chval, zval:    4.00000   4.00000

Vna:  Cut-off radius for the neutral-atom potential:   5.658549
comcore: Pseudo-core radius Rcore=  1.791422

atom: _________________________________________________________________________

prinput: Basis input ----------------------------------------------------------

PAO.BasisType split     

%block ChemicalSpeciesLabel
    1    7 N                       # Species index, atomic number, species label
    2    6 C                       # Species index, atomic number, species label
%endblock ChemicalSpeciesLabel

%block PAO.Basis                 # Define Basis set
N                     2                    # Species label, number of l-shells
 n=2   0   2                         # n, l, Nzeta 
   4.071      2.905   
   1.000      1.000   
 n=2   1   2 P   1                   # n, l, Nzeta, Polarization, NzetaPol
   4.973      3.054   
   1.000      1.000   
C                     2                    # Species label, number of l-shells
 n=2   0   2                         # n, l, Nzeta 
   4.633      3.432   
   1.000      1.000   
 n=2   1   2 P   1                   # n, l, Nzeta, Polarization, NzetaPol
   5.659      3.653   
   1.000      1.000   
%endblock PAO.Basis

prinput: ----------------------------------------------------------------------

coor:   Atomic-coordinates input format  =     Fractional

siesta: Atomic coordinates (Bohr) and species
siesta:     -2.35420  38.89134   0.00000  1        1
siesta:     -2.35420  41.57980   0.00000  1        2
siesta:      2.30256  38.89134   0.00000  1        3
siesta:     -4.68258  34.85847   0.00000  1        4
siesta:     -4.68258  37.54693   0.00000  1        5
siesta:      2.30256  17.38257   0.00000  1        6
siesta:     -0.02582  18.72698   0.00000  1        7
siesta:     -0.02582  21.41544   0.00000  1        8
siesta:      2.30256  22.75985   0.00000  1        9
siesta:     -4.68258  21.41544   0.00000  1       10
siesta:     -2.35420  22.75985   0.00000  1       11
siesta:     -7.01096  22.75985   0.00000  1       12
siesta:     -7.01096  25.44831   0.00000  1       13
siesta:     -9.33934  26.79272   0.00000  1       14
siesta:     -9.33934  29.48119   0.00000  1       15
siesta:     -4.68258  26.79272   0.00000  1       16
siesta:     -4.68258  29.48119   0.00000  1       17
siesta:     -2.35420  30.82560   0.00000  1       18
siesta:     -2.35420  33.51406   0.00000  1       19
siesta:     -7.01096  30.82560   0.00000  1       20
siesta:     -7.01096  33.51406   0.00000  1       21
siesta:     -0.02582  34.85847   0.00000  1       22
siesta:     -0.02582  37.54693   0.00000  1       23
siesta:     -0.02582   2.59549   0.00000  2       24
siesta:     -0.02582   5.28395   0.00000  2       25
siesta:      2.30256  41.57980   0.00000  2       26
siesta:      4.63094  34.85847   0.00000  2       27
siesta:      4.63094  37.54693   0.00000  2       28
siesta:      6.95932  30.82560   0.00000  2       29
siesta:      6.95932  33.51406   0.00000  2       30
siesta:      9.28770  26.79272   0.00000  2       31
siesta:      9.28770  29.48119   0.00000  2       32
siesta:      2.30256   6.62836   0.00000  2       33
siesta:      2.30256   9.31683   0.00000  2       34
siesta:      4.63094  10.66124   0.00000  2       35
siesta:      4.63094  13.34970   0.00000  2       36
siesta:      6.95932  14.69411   0.00000  2       37
siesta:      6.95932  17.38257   0.00000  2       38
siesta:      9.28770  18.72698   0.00000  2       39
siesta:      9.28770  21.41544   0.00000  2       40
siesta:     11.61608  22.75985   0.00000  2       41
siesta:     11.61608  25.44831   0.00000  2       42
siesta:     -2.35420   6.62836   0.00000  2       43
siesta:     -2.35420   9.31683   0.00000  2       44
siesta:     -0.02582  10.66124   0.00000  2       45
siesta:     -0.02582  13.34970   0.00000  2       46
siesta:      2.30256  14.69411   0.00000  2       47
siesta:      4.63094  18.72698   0.00000  2       48
siesta:      4.63094  21.41544   0.00000  2       49
siesta:      6.95932  22.75985   0.00000  2       50
siesta:      6.95932  25.44831   0.00000  2       51
siesta:     -4.68258  10.66124   0.00000  2       52
siesta:     -4.68258  13.34970   0.00000  2       53
siesta:     -2.35420  14.69411   0.00000  2       54
siesta:     -2.35420  17.38257   0.00000  2       55
siesta:      2.30256  25.44831   0.00000  2       56
siesta:     -7.01096  14.69411   0.00000  2       57
siesta:     -7.01096  17.38257   0.00000  2       58
siesta:     -4.68258  18.72698   0.00000  2       59
siesta:     -2.35420  25.44831   0.00000  2       60
siesta:     -9.33934  18.72698   0.00000  2       61
siesta:     -9.33934  21.41544   0.00000  2       62
siesta:    -11.66772  22.75985   0.00000  2       63
siesta:    -11.66772  25.44831   0.00000  2       64
siesta:      4.63094  26.79272   0.00000  2       65
siesta:      4.63094  29.48119   0.00000  2       66
siesta:     -0.02582  26.79272   0.00000  2       67
siesta:     -0.02582  29.48119   0.00000  2       68
siesta:      2.30256  30.82560   0.00000  2       69
siesta:      2.30256  33.51406   0.00000  2       70
siesta:     -0.02582  42.92421   0.00000  2       71
siesta:     -0.02582  45.61267   0.00000  2       72

siesta: System type = slab      

initatomlists: Number of atoms, orbitals, and projectors:     72   936  1152

siesta: ******************** Simulation parameters ****************************
siesta:
siesta: The following are some of the parameters of the simulation.
siesta: A complete list of the parameters used, including default values,
siesta: can be found in file out.fdf
siesta:
redata: Non-Collinear-spin run           =     F
redata: SpinPolarized (Up/Down) run      =     F
redata: Number of spin components        =     1
redata: Long output                      =     F
redata: Number of Atomic Species         =        2
redata: Charge density info will appear in .RHO file
redata: Write Mulliken Pop.              =     NO
redata: Mesh Cutoff                      =   200.0000  Ry
redata: Net charge of the system         =     0.0000 |e|
redata: Max. number of SCF Iter          =      500
redata: SCF convergence failure will abort job
redata: Performing Pulay mixing using    =    10 iterations
redata: Mix DM in first SCF step ?       =     F
redata: Write Pulay info on disk?        =     F
redata: Discard 1st Pulay DM after  kick =     F
redata: New DM Mixing Weight             =     0.0500
redata: New DM Occupancy tolerance       = 0.000000000001
redata: No kicks to SCF
redata: DM Mixing Weight for Kicks       =     0.5000
redata: DM Tolerance for SCF             =     0.000100
redata: Require Energy convergence for SCF =     F
redata: DM Energy tolerance for SCF      =     0.000100 eV
redata: Require Harris convergence for SCF =     F
redata: DM Harris energy tolerance for SCF =     0.000100 eV
redata: Using Saved Data (generic)   =     F
redata: Use continuation files for DM    =     T
redata: Neglect nonoverlap interactions  =     F
redata: Method of Calculation            =     Diagonalization
redata: Divide and Conquer               =     T
redata: Electronic Temperature           =     0.0019  Ry
redata: Fix the spin of the system       =     F
redata: Dynamics option                  =     Verlet MD run
redata: Initial MD time step             =        1
redata:   Final MD time step             =        1
redata: Length of MD time step           =     1.0000  fs
redata: Initial Temperature of MD run    =     0.0000  K
redata: Perform a MD quench              =     F
redata: ***********************************************************************
Total number of electrons:   311.000000
Total ionic charge:   311.000000

* ProcessorY, Blocksize:    2  24

k-point displ. along   1 input, could be:     0.50    0.00
k-point displ. along   2 input, could be:     0.50    0.00
 Kpoints in:          231 . Kpoints trimmed:          231

siesta: k-grid: Number of k-points =   231
siesta: k-grid: Cutoff (effective) =     5.000 Ang
siesta: k-grid: Supercell and displacements
siesta: k-grid:   21   0   0      0.500
siesta: k-grid:    0  21   0      0.500
siesta: k-grid:    0   0   1      0.000
Naive supercell factors:     2    2    2

superc: Internal auxiliary supercell:     2 x     2 x     2  =       8
superc: Number of atoms, orbitals, and projectors:    576   7488   9216

* Maximum dynamic memory allocated =     4 MB

siesta:                 ==============================
                            Begin MD step =      1
                        ==============================

superc: Internal auxiliary supercell:     2 x     2 x     2  =       8
superc: Number of atoms, orbitals, and projectors:    576   7488   9216

outcell: Unit cell vectors (Ang):
       12.804619    7.392750    0.000000
        0.000000   14.785500    0.000000
        0.000000    0.000000   10.000000

outcell: Cell vector modules (Ang)   :   14.785500   14.785500   10.000000
outcell: Cell angles (23,13,12) (deg):     90.0000     90.0000     60.0000
outcell: Cell volume (Ang**3)        :   1893.2269
New_DM. Step:     1
Initializing Density Matrix...

InitMesh: MESH =   120 x   120 x    90 =     1296000
InitMesh: Mesh cutoff (required, used) =   200.000   223.865 Ry

* Maximum dynamic memory allocated =   179 MB

stepf: Fermi-Dirac step function

siesta: Program's energy decomposition (eV):
siesta: Ebs     =     -6338.941527
siesta: Eions   =     22100.188487
siesta: Ena     =      4964.852010
siesta: Ekin    =      8308.399223
siesta: Enl     =       -40.227217
siesta: DEna    =        -0.000015
siesta: DUscf   =         0.000000
siesta: DUext   =         0.000000
siesta: Exc     =     -4750.550521
siesta: eta*DQ  =         0.000000
siesta: Emadel  =         0.000000
siesta: Emeta   =         0.000000
siesta: Emolmec =         0.000000
siesta: Ekinion =         0.000000
siesta: Eharris =    -13231.865941
siesta: Etot    =    -13617.715006
siesta: FreeEng =    -13617.715006

siesta: iscf   Eharris(eV)      E_KS(eV)   FreeEng(eV)   dDmax  Ef(eV)
siesta:    1   -13231.8659   -13617.7150   -13617.7150  5.9530 -6.7479
timer: Routine,Calls,Time,% = IterSCF        1    3365.338  99.69
elaps: Routine,Calls,Wall,% = IterSCF        1     421.488  99.70
siesta:    2   -17929.9508   -12572.4566   -12572.4759 24.6351 -3.3563
siesta:    3   -13124.5115   -13439.5729   -13439.6275  2.8907 -5.2067
siesta:    4   -13101.0454   -13255.0546   -13255.1217  1.2246 -4.1616
siesta:    5   -13070.0969   -13166.1818   -13166.2444  1.3509 -3.7191
siesta:    6   -13066.3038   -13156.4212   -13156.4644  1.1650 -3.7203
siesta:    7   -13063.5109   -13143.6720   -13143.7309  0.8422 -3.7386
siesta:    8   -13061.7320   -13125.1124   -13125.1912  0.7799 -3.7118
siesta:    9   -13059.9808   -13107.7514   -13107.8435  0.6458 -3.7492
siesta:   10   -13059.4217   -13081.0392   -13081.1053  0.4416 -3.7292
siesta:   11   -13059.7258   -13058.1457   -13058.2230  0.3220 -3.7274
siesta:   12   -13059.3467   -13049.4515   -13049.5240  0.1885 -3.6544
siesta:   13   -13059.1818   -13043.7144   -13043.7722  0.1672 -3.6867
siesta:   14   -13058.8956   -13044.4416   -13044.5111  0.0874 -3.6701
siesta:   15   -13058.7185   -13046.3683   -13046.4435  0.1872 -3.6983
siesta:   16   -13058.6331   -13048.4754   -13048.5500  0.1206 -3.7110
siesta:   17   -13058.6090   -13048.7702   -13048.8465  0.0852 -3.7134
siesta:   18   -13058.5912   -13050.7540   -13050.8280  0.0424 -3.7119
siesta:   19   -13058.5838   -13052.4657   -13052.5404  0.0475 -3.7141
siesta:   20   -13058.5789   -13054.2086   -13054.2860  0.0299 -3.7219
siesta:   21   -13058.5739   -13055.7157   -13055.7905  0.0253 -3.7252
siesta:   22   -13058.5726   -13056.8976   -13056.9730  0.0173 -3.7232
siesta:   23   -13058.5711   -13057.9667   -13058.0421  0.0116 -3.7191
siesta:   24   -13058.5710   -13058.5481   -13058.6240  0.0121 -3.7166
siesta:   25   -13058.5706   -13058.5520   -13058.6279  0.0045 -3.7156
siesta:   26   -13058.5701   -13058.5634   -13058.6392  0.0049 -3.7146
siesta:   27   -13058.5702   -13058.4151   -13058.4911  0.0048 -3.7142
siesta:   28   -13058.5700   -13058.5189   -13058.5948  0.0010 -3.7136
siesta:   29   -13058.5700   -13058.5580   -13058.6340  0.0009 -3.7138
siesta:   30   -13058.5700   -13058.6042   -13058.6802  0.0008 -3.7140
siesta:   31   -13058.5700   -13058.6364   -13058.7124  0.0011 -3.7141
siesta:   32   -13058.5700   -13058.6229   -13058.6989  0.0005 -3.7141
siesta:   33   -13058.5700   -13058.6227   -13058.6987  0.0004 -3.7142
siesta:   34   -13058.5700   -13058.5957   -13058.6717  0.0003 -3.7143
siesta:   35   -13058.5700   -13058.5826   -13058.6586  0.0001 -3.7143
siesta:   36   -13058.5700   -13058.5773   -13058.6533  0.0001 -3.7143

siesta: E_KS(eV) =           -13058.5748

siesta: E_KS - E_eggbox =    -13058.5748

siesta: Atomic forces (eV/Ang):
----------------------------------------
   Tot   -0.117268    0.118715    0.000000
----------------------------------------
   Max  683.642037
   Res  179.900356    sqrt( Sum f_i^2 / 3N )
----------------------------------------
   Max  683.642037    constrained

Stress-tensor-Voigt (kbar):     -652.71    -3258.65       -0.06       25.48        0.00        0.00
(Free)E + p*V (eV/cell)   -11518.0111
Target enthalpy (eV/cell)   -13058.6508

siesta: Stress tensor (static) (eV/Ang**3):
        -0.407383    0.015903    0.000000
         0.015903   -2.033870    0.000000
         0.000000    0.000000   -0.000039

siesta: Pressure (static):       1303.80758706  kBar

siesta: Stress tensor (total) (eV/Ang**3):
        -0.407383    0.015903    0.000000
         0.015903   -2.033870    0.000000
         0.000000    0.000000   -0.000039

siesta: Pressure (total):       1303.80758706  kBar

siesta: Temp_ion =       0.000 K

* Maximum dynamic memory allocated =   195 MB
Computing bands...

siesta: Program's energy decomposition (eV):
siesta: Ebs     =     -5085.529128
siesta: Eions   =     22100.188487
siesta: Ena     =      4964.852010
siesta: Ekin    =     11467.178027
siesta: Enl     =     -1756.084494
siesta: DEna    =      -817.590300
siesta: DUscf   =       113.542583
siesta: DUext   =         0.000000
siesta: Exc     =     -4930.284103
siesta: eta*DQ  =         0.000000
siesta: Emadel  =         0.000000
siesta: Emeta   =         0.000000
siesta: Emolmec =         0.000000
siesta: Ekinion =         0.000000
siesta: Eharris =    -13058.569991
siesta: Etot    =    -13058.574764
siesta: FreeEng =    -13058.650762

siesta: Final energy (eV):
siesta:  Band Struct. =   -5085.529128
siesta:       Kinetic =   11467.178027
siesta:       Hartree =   37233.152684
siesta:    Ext. field =       0.000000
siesta:   Exch.-corr. =   -4930.284103
siesta:  Ion-electron =  -85407.285130
siesta:       Ion-ion =   28578.663758
siesta:       Ekinion =       0.000000
siesta:         Total =  -13058.574764

siesta: Atomic forces (eV/Ang):
siesta:      1    0.975254  107.325897    0.000000
siesta:      2  -18.772180 -649.364201    0.000000
siesta:      3   -3.053610  119.112293    0.000000
siesta:      4  -30.945237    7.835766    0.000000
siesta:      5  -25.380834 -656.599076    0.000000
siesta:      6   35.333860  -14.704243    0.000000
siesta:      7  -13.529120  683.642037    0.000000
siesta:      8    0.004031   -4.313691    0.000000
siesta:      9    1.522847    1.437590    0.000000
siesta:     10    0.882646   -1.323271    0.000000
siesta:     11   -2.818354    2.215298    0.000000
siesta:     12   -0.452448    0.652204    0.000000
siesta:     13    2.124211    0.051505    0.000000
siesta:     14   -2.670677    0.830773    0.000000
siesta:     15    0.748341    0.268072    0.000000
siesta:     16    0.028322   -2.029679    0.000000
siesta:     17   -2.071443   -3.331828    0.000000
siesta:     18  -27.110830    7.373916    0.000000
siesta:     19    1.811891 -678.116791    0.000000
siesta:     20   -1.371516   -0.078534    0.000000
siesta:     21   -1.115800   -3.505067    0.000000
siesta:     22    1.910155  107.316980    0.000000
siesta:     23   -1.314338 -663.902453    0.000000
siesta:     24  -14.153357  548.184485    0.000000
siesta:     25   -0.854980 -120.530450    0.000000
siesta:     26    3.269165 -540.093193    0.000000
siesta:     27   27.297469    4.011252    0.000000
siesta:     28   33.114102 -552.619528    0.000000
siesta:     29    2.023981    0.100010    0.000000
siesta:     30   -3.181809    1.785391    0.000000
siesta:     31    1.997208    2.367961    0.000000
siesta:     32   -1.269389   -0.028549    0.000000
siesta:     33   -4.509017  546.535075    0.000000
siesta:     34    0.195739 -120.076566    0.000000
siesta:     35   24.132386  549.018131    0.000000
siesta:     36   27.912157   -2.441732    0.000000
siesta:     37   -3.160183   -1.571910    0.000000
siesta:     38    1.927073    0.085108    0.000000
siesta:     39   -1.439658    0.029486    0.000000
siesta:     40    1.511597   -2.666576    0.000000
siesta:     41    0.102211    7.534622    0.000000
siesta:     42   -0.282583   -7.494150    0.000000
siesta:     43  -22.986136  655.661351    0.000000
siesta:     44    1.653877 -116.441539    0.000000
siesta:     45   -4.222859  672.025642    0.000000
siesta:     46    1.130793 -120.230500    0.000000
siesta:     47   21.929111  559.339228    0.000000
siesta:     48   -0.984305    3.422960    0.000000
siesta:     49   -0.885990   -1.640024    0.000000
siesta:     50   -0.292750    1.144213    0.000000
siesta:     51   -0.159098   -0.686678    0.000000
siesta:     52  -22.329136  659.123962    0.000000
siesta:     53  -26.630068   -3.710884    0.000000
siesta:     54  -16.791495  681.068043    0.000000
siesta:     55  -27.048230  -10.182504    0.000000
siesta:     56   -1.245422   -0.492067    0.000000
siesta:     57    2.506261   -0.807004    0.000000
siesta:     58   -1.197145   -0.024096    0.000000
siesta:     59    1.216423    3.394664    0.000000
siesta:     60   -0.910115    0.783843    0.000000
siesta:     61    0.508541    0.673181    0.000000
siesta:     62   -1.962326   -1.813988    0.000000
siesta:     63    1.080225    3.571215    0.000000
siesta:     64    1.686187   -1.015298    0.000000
siesta:     65    0.535953   -0.233534    0.000000
siesta:     66   -1.562557   -2.404889    0.000000
siesta:     67    0.249527   -1.416619    0.000000
siesta:     68   20.177211 -574.986783    0.000000
siesta:     69   24.027048    4.412523    0.000000
siesta:     70   28.717496 -562.977682    0.000000
siesta:     71    4.735486  121.499788    0.000000
siesta:     72    9.568939 -639.860169    0.000000
siesta: ----------------------------------------
siesta:    Tot   -0.117268    0.118715    0.000000

siesta: Stress tensor (static) (eV/Ang**3):
siesta:    -0.407383    0.015903    0.000000
siesta:     0.015903   -2.033870    0.000000
siesta:     0.000000    0.000000   -0.000039

siesta: Cell volume =       1893.226884 Ang**3

siesta: Pressure (static):
siesta:                Solid            Molecule  Units
siesta:           0.00886293          0.14302493  Ry/Bohr**3
siesta:           0.81376389         13.13206266  eV/Ang**3
siesta:        1303.80758706      21040.11137095  kBar
(Free)E+ p_basis*V_orbitals  =      -13031.201307
(Free)Eharris+ p_basis*V_orbitals  =      -13031.193964

siesta: Electric dipole (a.u.)  =    0.000000    0.000000    0.000000
siesta: Electric dipole (Debye) =    0.000000    0.000000    0.000000

* Maximum dynamic memory allocated : Node    0 =   195 MB
* Maximum dynamic memory allocated : Node    1 =    70 MB
* Maximum dynamic memory allocated : Node    2 =    72 MB
* Maximum dynamic memory allocated : Node    3 =   186 MB
* Maximum dynamic memory allocated : Node    4 =   188 MB
* Maximum dynamic memory allocated : Node    5 =    71 MB
* Maximum dynamic memory allocated : Node    6 =    72 MB
* Maximum dynamic memory allocated : Node    7 =   172 MB

* Maximum memory occured during matrixMtoO                    

timer: CPU execution times:
timer:  Routine       Calls   Time/call    Tot.time        %
timer:  siesta            1  120270.652  120270.652   100.00
timer:  Setup             1       2.674       2.674     0.00
timer:  bands             3     243.557     730.671     0.61
timer:  writewave         1       0.019       0.019     0.00
timer:  KSV_init          1       0.003       0.003     0.00
timer:  IterMD            1  119532.094  119532.094    99.39
timer:  hsparse           1       0.284       0.284     0.00
timer:  overlap           1       7.136       7.136     0.01
timer:  IterSCF          36    3316.349  119388.570    99.27
timer:  kinefsm           2       3.675       7.350     0.01
timer:  nlefsm            2      17.287      34.575     0.03
timer:  DHSCF            37      71.244    2636.011     2.19
timer:  DHSCF1            1       0.745       0.745     0.00
timer:  DHSCF2            1      30.121      30.121     0.03
timer:  REORD           298       0.005       1.483     0.00
timer:  POISON           38       0.868      32.990     0.03
timer:  DHSCF3           37      69.648    2576.963     2.14
timer:  rhoofd           37      14.901     551.340     0.46
timer:  cellXC           37       3.274     121.138     0.10
timer:  vmat             37      32.377    1197.956     1.00
timer:  MolMec            2       0.000       0.000     0.00
timer:  diagon           36    3244.351  116796.629    97.11
timer:  c-eigval       8437       6.027   50853.513    42.28
timer:  c-buildHS      8437       0.046     389.294     0.32
timer:  cdiag         16753       6.155  103114.711    85.74
timer:  cdiag1        16753       0.386    6473.088     5.38
timer:  cdiag2        16753       1.765   29572.280    24.59
timer:  cdiag3        16753       3.737   62605.616    52.05
timer:  cdiag4        16753       0.152    2541.479     2.11
timer:  c-eigvec       8316       6.369   52965.181    44.04
timer:  c-buildD       8316       1.643   13665.316    11.36
timer:  DHSCF4            1      27.459      27.459     0.02
timer:  dfscf             1      25.604      25.604     0.02
timer:  overfsm           1       0.375       0.375     0.00
timer:  optical           1       4.544       4.544     0.00
  

elaps: ELAPSED times:
elaps:  Routine       Calls   Time/call    Tot.time        %
elaps:  siesta            1   15062.350   15062.350   100.00
elaps:  Setup             1       0.335       0.335     0.00
elaps:  bands             3      30.519      91.558     0.61
elaps:  writewave         1       0.002       0.002     0.00
elaps:  KSV_init          1       0.000       0.000     0.00
elaps:  IterMD            1   14969.856   14969.856    99.39
elaps:  hsparse           1       0.036       0.036     0.00
elaps:  overlap           1       0.893       0.893     0.01
elaps:  IterSCF          36     415.330   14951.885    99.27
elaps:  kinefsm           2       0.461       0.922     0.01
elaps:  nlefsm            2       2.196       4.392     0.03
elaps:  DHSCF            37       9.019     333.698     2.22
elaps:  DHSCF1            1       0.095       0.095     0.00
elaps:  DHSCF2            1       3.772       3.772     0.03
elaps:  REORD           298       0.001       0.204     0.00
elaps:  POISON           38       0.110       4.169     0.03
elaps:  DHSCF3           37       8.723     322.753     2.14
elaps:  rhoofd           37       4.101     151.739     1.01
elaps:  cellXC           37       0.409      15.148     0.10
elaps:  vmat             37       4.055     150.042     1.00
elaps:  MolMec            2       0.000       0.000     0.00
elaps:  diagon           36     406.316   14627.389    97.11
elaps:  c-eigval       8437       0.755    6368.585    42.28
elaps:  c-buildHS      8437       0.006      52.433     0.35
elaps:  cdiag         16753       0.768   12873.333    85.47
elaps:  cdiag1        16753       0.049     814.869     5.41
elaps:  cdiag2        16753       0.221    3704.119    24.59
elaps:  cdiag3        16753       0.469    7850.727    52.12
elaps:  cdiag4        16753       0.019     311.673     2.07
elaps:  c-eigvec       8316       0.794    6599.522    43.81
elaps:  c-buildD       8316       0.210    1743.074    11.57
elaps:  DHSCF4            1       6.983       6.983     0.05
elaps:  dfscf             1       6.588       6.588     0.04
elaps:  overfsm           1       0.047       0.047     0.00
elaps:  optical           1       0.000       0.000     0.00
  
>> End of run:  26-APR-2016   6:22:21
