Siesta Version:                                        siesta-3.2-pl-3
Architecture  : x86_64-unknown-linux-gnu--unknown
Compiler flags: mpiifort -g -O2 -fPIC -xSSE4.1 -fp-model source -shared-intel 
PARALLEL version

* Running on   12 nodes in parallel
>> Start of run:   7-MAY-2016  21:00:42

                           ***********************       
                           *  WELCOME TO SIESTA  *       
                           ***********************       

reinit: Reading from standard input
************************** Dump of input data file ****************************
#(1) General system descriptors
SystemName            GRP_doping    # Descriptive name of the system
SystemLabel           GRP_doping    # Short name for naming files
%include STRUCT.fdf
%include KPT.fdf
%include BASIS.fdf
#%include TS.fdf # for transiesta calculation
#(4) DFT, Grid, SCF
XC.functional         GGA           # LDA or GGA (default = LDA)
XC.authors            PBE           # CA (Ceperley-Aldr) = PZ
                                    #    (Perdew-Zunger) - LDA - Default
                                    # PW92 (Perdew-Wang-92) - LDA
                                    # PBE (Perdew-Burke-Ernzerhof) - GGA
MeshCutoff            200.000000    Ry      # Default: 50.0 Ry ~ 0.444 Bohr
                                    #         100.0 Ry ~ 0.314 Bohr
MaxSCFIterations      500           # Default: 50
DM.MixingWeight       0.05          # Default: 0.25
DM.NumberPulay        10            # Default: 0
DM.PulayOnFile        F             # SystemLabel.P1, SystemLabel.P2
DM.Tolerance          1.d-4         # Default: 1.d-4
DM.UseSaveDM          .true.        # because of the bug
SCFMustConverge       .true.
NeglNonOverlapInt     F             # Default: F
#(5) Eigenvalue problem: order-N or diagonalization
SolutionMethod        Diagon        # or Transiesta
ElectronicTemperature 300.0 K       # Default: 300.0 K
#(6) Molecular dynamics and relaxations
#MD.TypeOfRun          CG            # Type of dynamics:
#MD.VariableCell       F
#MD.NumCGsteps         0           # 0 for single-point / 100 for gopt
#MD.MaxCGDispl         0.2 Bohr      # Default: 0.2 Bohr
#MD.MaxForceTol        0.02 eV/Ang   # Default: 0.04 eV/Ang
#MD.MaxStressTol       1.0 GPa       # Default: 1.0 GPa
# Geometry Constraints
#%block GeometryConstraints
#	position from 1 to 44
#%endblock GeometryConstraints
BandLinesScale   pi/a
%block BandLines
 1   0.00000000  0.00000000  0.00000000
50   0.00000000  0.07809418  0.00000000
50   0.04509075  0.07809242  0.00000000
20   0.00000000  0.00000000  0.00000000
%endblock BandLines
************************** End of input data file *****************************

reinit: -----------------------------------------------------------------------
reinit: System Name: GRP_doping
reinit: -----------------------------------------------------------------------
reinit: System Label: GRP_doping                                                  
reinit: -----------------------------------------------------------------------

initatom: Reading input for the pseudopotentials and atomic orbitals ----------
 Species number:            1  Label: N Atomic number:           7
 Species number:            2  Label: C Atomic number:           6
Ground state valence configuration:   2s02  2p03
Reading pseudopotential information in formatted form from N.psf

Valence configuration for pseudopotential generation:
2s( 2.00) rc: 1.48
2p( 3.00) rc: 1.48
3d( 0.00) rc: 1.48
4f( 0.00) rc: 1.48
Ground state valence configuration:   2s02  2p02
Reading pseudopotential information in formatted form from C.psf

Valence configuration for pseudopotential generation:
2s( 2.00) rc: 1.54
2p( 2.00) rc: 1.54
3d( 0.00) rc: 1.54
4f( 0.00) rc: 1.54
For N, standard SIESTA heuristics set lmxkb to 3
 (one more than the basis l, including polarization orbitals).
Use PS.lmax or PS.KBprojectors blocks to override.
For C, standard SIESTA heuristics set lmxkb to 3
 (one more than the basis l, including polarization orbitals).
Use PS.lmax or PS.KBprojectors blocks to override.

<basis_specs>
===============================================================================
N                    Z=   7    Mass=  14.010        Charge= 0.17977+309
Lmxo=1 Lmxkb= 3    BasisType=split      Semic=F
L=0  Nsemic=0  Cnfigmx=2
          n=1  nzeta=2  polorb=0
            splnorm:   0.15000    
               vcte:    0.0000    
               rinn:    0.0000    
                rcs:    0.0000      0.0000    
            lambdas:    1.0000      1.0000    
L=1  Nsemic=0  Cnfigmx=2
          n=1  nzeta=2  polorb=1
            splnorm:   0.15000    
               vcte:    0.0000    
               rinn:    0.0000    
                rcs:    0.0000      0.0000    
            lambdas:    1.0000      1.0000    
-------------------------------------------------------------------------------
L=0  Nkbl=1  erefs: 0.17977+309
L=1  Nkbl=1  erefs: 0.17977+309
L=2  Nkbl=1  erefs: 0.17977+309
L=3  Nkbl=1  erefs: 0.17977+309
===============================================================================
</basis_specs>

atom: Called for N                     (Z =   7)

read_vps: Pseudopotential generation method:
read_vps: ATM3      Troullier-Martins                       
Total valence charge:    5.00000

read_vps: Pseudopotential includes a core correction:
read_vps: Pseudo-core for xc-correction

xc_check: Exchange-correlation functional:
xc_check: GGA Perdew, Burke & Ernzerhof 1996
V l=0 = -2*Zval/r beyond r=  1.4606
V l=1 = -2*Zval/r beyond r=  1.4606
V l=2 = -2*Zval/r beyond r=  1.4606
V l=3 = -2*Zval/r beyond r=  1.4606
All V_l potentials equal beyond r=  1.4606
This should be close to max(r_c) in ps generation
All pots = -2*Zval/r beyond r=  1.4606

VLOCAL1: 99.0% of the norm of Vloc inside     20.347 Ry
VLOCAL1: 99.9% of the norm of Vloc inside     46.372 Ry
atom: Maximum radius for 4*pi*r*r*local-pseudopot. charge    1.76189
atom: Maximum radius for r*vlocal+2*Zval:    1.53550
GHOST: No ghost state for L =  0
GHOST: No ghost state for L =  1
GHOST: No ghost state for L =  2
GHOST: No ghost state for L =  3

KBgen: Kleinman-Bylander projectors: 
   l= 0   rc=  1.634559   el= -1.363963   Ekb=  5.296955   kbcos=  0.335621
   l= 1   rc=  1.614250   el= -0.521451   Ekb= -5.259161   kbcos= -0.433408
   l= 2   rc=  1.718383   el=  0.001991   Ekb= -1.271464   kbcos= -0.007566
   l= 3   rc=  1.761893   el=  0.003093   Ekb= -0.494769   kbcos= -0.001015

KBgen: Total number of  Kleinman-Bylander projectors:   16
atom: -------------------------------------------------------------------------

atom: SANKEY-TYPE ORBITALS:
atom: Selected multiple-zeta basis: split     

SPLIT: Orbitals with angular momentum L= 0

SPLIT: Basis orbitals for state 2s

SPLIT: PAO cut-off radius determined from an
SPLIT: energy shift=  0.007350 Ry

   izeta = 1
                 lambda =    1.000000
                     rc =    4.071465
                 energy =   -1.356470
                kinetic =    1.176977
    potential(screened) =   -2.533447
       potential(ionic) =   -8.057990

   izeta = 2
                 rmatch =    2.905100
              splitnorm =    0.150000
                 energy =   -1.158343
                kinetic =    1.813009
    potential(screened) =   -2.971352
       potential(ionic) =   -8.901931

SPLIT: Orbitals with angular momentum L= 1

SPLIT: Basis orbitals for state 2p

SPLIT: PAO cut-off radius determined from an
SPLIT: energy shift=  0.007350 Ry

   izeta = 1
                 lambda =    1.000000
                     rc =    4.972977
                 energy =   -0.513884
                kinetic =    3.441732
    potential(screened) =   -3.955616
       potential(ionic) =   -9.287901

   izeta = 2
                 rmatch =    3.054066
              splitnorm =    0.150000
                 energy =   -0.318226
                kinetic =    5.125348
    potential(screened) =   -5.443573
       potential(ionic) =  -11.380999

POLgen: Perturbative polarization orbital with L=  2

POLgen: Polarization orbital for state 2p

   izeta = 1
                     rc =    4.972977
                 energy =    1.607437
                kinetic =    3.268125
    potential(screened) =   -1.660688
       potential(ionic) =   -5.973652
atom: Total number of Sankey-type orbitals: 13

atm_pop: Valence configuration (for local Pseudopot. screening):
 2s( 2.00)                                                            
 2p( 3.00)                                                            
Vna: chval, zval:    5.00000   5.00000

Vna:  Cut-off radius for the neutral-atom potential:   4.972977
comcore: Pseudo-core radius Rcore=  1.554824

atom: _________________________________________________________________________

<basis_specs>
===============================================================================
C                    Z=   6    Mass=  12.010        Charge= 0.17977+309
Lmxo=1 Lmxkb= 3    BasisType=split      Semic=F
L=0  Nsemic=0  Cnfigmx=2
          n=1  nzeta=2  polorb=0
            splnorm:   0.15000    
               vcte:    0.0000    
               rinn:    0.0000    
                rcs:    0.0000      0.0000    
            lambdas:    1.0000      1.0000    
L=1  Nsemic=0  Cnfigmx=2
          n=1  nzeta=2  polorb=1
            splnorm:   0.15000    
               vcte:    0.0000    
               rinn:    0.0000    
                rcs:    0.0000      0.0000    
            lambdas:    1.0000      1.0000    
-------------------------------------------------------------------------------
L=0  Nkbl=1  erefs: 0.17977+309
L=1  Nkbl=1  erefs: 0.17977+309
L=2  Nkbl=1  erefs: 0.17977+309
L=3  Nkbl=1  erefs: 0.17977+309
===============================================================================
</basis_specs>

atom: Called for C                     (Z =   6)

read_vps: Pseudopotential generation method:
read_vps: ATM3      Troullier-Martins                       
Total valence charge:    4.00000

read_vps: Pseudopotential includes a core correction:
read_vps: Pseudo-core for xc-correction

xc_check: Exchange-correlation functional:
xc_check: GGA Perdew, Burke & Ernzerhof 1996
V l=0 = -2*Zval/r beyond r=  1.5227
V l=1 = -2*Zval/r beyond r=  1.5227
V l=2 = -2*Zval/r beyond r=  1.5227
V l=3 = -2*Zval/r beyond r=  1.5038
All V_l potentials equal beyond r=  1.5227
This should be close to max(r_c) in ps generation
All pots = -2*Zval/r beyond r=  1.5227

VLOCAL1: 99.0% of the norm of Vloc inside     18.722 Ry
VLOCAL1: 99.9% of the norm of Vloc inside     42.668 Ry
atom: Maximum radius for 4*pi*r*r*local-pseudopot. charge    1.83678
atom: Maximum radius for r*vlocal+2*Zval:    1.58088
GHOST: No ghost state for L =  0
GHOST: No ghost state for L =  1
GHOST: No ghost state for L =  2
GHOST: No ghost state for L =  3

KBgen: Kleinman-Bylander projectors: 
   l= 0   rc=  1.704034   el= -1.009801   Ekb=  5.335044   kbcos=  0.316824
   l= 1   rc=  1.704034   el= -0.388707   Ekb= -3.785862   kbcos= -0.366464
   l= 2   rc=  1.791422   el=  0.001971   Ekb= -0.970471   kbcos= -0.009212
   l= 3   rc=  1.859892   el=  0.003065   Ekb= -0.399525   kbcos= -0.001223

KBgen: Total number of  Kleinman-Bylander projectors:   16
atom: -------------------------------------------------------------------------

atom: SANKEY-TYPE ORBITALS:
atom: Selected multiple-zeta basis: split     

SPLIT: Orbitals with angular momentum L= 0

SPLIT: Basis orbitals for state 2s

SPLIT: PAO cut-off radius determined from an
SPLIT: energy shift=  0.007350 Ry

   izeta = 1
                 lambda =    1.000000
                     rc =    4.632753
                 energy =   -1.002270
                kinetic =    0.855760
    potential(screened) =   -1.858031
       potential(ionic) =   -5.417575

   izeta = 2
                 rmatch =    3.431921
              splitnorm =    0.150000
                 energy =   -0.867111
                kinetic =    1.300804
    potential(screened) =   -2.167915
       potential(ionic) =   -5.962684

SPLIT: Orbitals with angular momentum L= 1

SPLIT: Basis orbitals for state 2p

SPLIT: PAO cut-off radius determined from an
SPLIT: energy shift=  0.007350 Ry

   izeta = 1
                 lambda =    1.000000
                     rc =    5.658549
                 energy =   -0.381140
                kinetic =    2.399701
    potential(screened) =   -2.780841
       potential(ionic) =   -6.206085

   izeta = 2
                 rmatch =    3.653288
              splitnorm =    0.150000
                 energy =   -0.249149
                kinetic =    3.542762
    potential(screened) =   -3.791911
       potential(ionic) =   -7.581078

POLgen: Perturbative polarization orbital with L=  2

POLgen: Polarization orbital for state 2p

   izeta = 1
                     rc =    5.658549
                 energy =    1.109913
                kinetic =    2.304789
    potential(screened) =   -1.194876
       potential(ionic) =   -4.013592
atom: Total number of Sankey-type orbitals: 13

atm_pop: Valence configuration (for local Pseudopot. screening):
 2s( 2.00)                                                            
 2p( 2.00)                                                            
Vna: chval, zval:    4.00000   4.00000

Vna:  Cut-off radius for the neutral-atom potential:   5.658549
comcore: Pseudo-core radius Rcore=  1.791422

atom: _________________________________________________________________________

prinput: Basis input ----------------------------------------------------------

PAO.BasisType split     

%block ChemicalSpeciesLabel
    1    7 N                       # Species index, atomic number, species label
    2    6 C                       # Species index, atomic number, species label
%endblock ChemicalSpeciesLabel

%block PAO.Basis                 # Define Basis set
N                     2                    # Species label, number of l-shells
 n=2   0   2                         # n, l, Nzeta 
   4.071      2.905   
   1.000      1.000   
 n=2   1   2 P   1                   # n, l, Nzeta, Polarization, NzetaPol
   4.973      3.054   
   1.000      1.000   
C                     2                    # Species label, number of l-shells
 n=2   0   2                         # n, l, Nzeta 
   4.633      3.432   
   1.000      1.000   
 n=2   1   2 P   1                   # n, l, Nzeta, Polarization, NzetaPol
   5.659      3.653   
   1.000      1.000   
%endblock PAO.Basis

prinput: ----------------------------------------------------------------------

coor:   Atomic-coordinates input format  =     Fractional

siesta: Atomic coordinates (Bohr) and species
siesta:      2.30256  38.89134   0.00000  1        1
siesta:     -4.68258  37.54693   0.00000  1        2
siesta:      2.30256   9.31683   0.00000  1        3
siesta:     11.61608  22.75985   0.00000  1        4
siesta:      4.63094  18.72698   0.00000  1        5
siesta:     -2.35420  17.38257   0.00000  1        6
siesta:      2.30256  22.75985   0.00000  1        7
siesta:     -7.01096  22.75985   0.00000  1        8
siesta:     -9.33934  29.48119   0.00000  1        9
siesta:      4.63094  29.48119   0.00000  1       10
siesta:     -2.35420  30.82560   0.00000  1       11
siesta:     -0.02582   2.59549   0.00000  2       12
siesta:     -0.02582   5.28395   0.00000  2       13
siesta:     -2.35420  38.89134   0.00000  2       14
siesta:     -2.35420  41.57980   0.00000  2       15
siesta:      2.30256  41.57980   0.00000  2       16
siesta:      4.63094  34.85847   0.00000  2       17
siesta:      4.63094  37.54693   0.00000  2       18
siesta:      6.95932  30.82560   0.00000  2       19
siesta:      6.95932  33.51406   0.00000  2       20
siesta:      9.28770  26.79272   0.00000  2       21
siesta:      9.28770  29.48119   0.00000  2       22
siesta:     -4.68258  34.85847   0.00000  2       23
siesta:      2.30256   6.62836   0.00000  2       24
siesta:      4.63094  10.66124   0.00000  2       25
siesta:      4.63094  13.34970   0.00000  2       26
siesta:      6.95932  14.69411   0.00000  2       27
siesta:      6.95932  17.38257   0.00000  2       28
siesta:      9.28770  18.72698   0.00000  2       29
siesta:      9.28770  21.41544   0.00000  2       30
siesta:     11.61608  25.44831   0.00000  2       31
siesta:     -2.35420   6.62836   0.00000  2       32
siesta:     -2.35420   9.31683   0.00000  2       33
siesta:     -0.02582  10.66124   0.00000  2       34
siesta:     -0.02582  13.34970   0.00000  2       35
siesta:      2.30256  14.69411   0.00000  2       36
siesta:      2.30256  17.38257   0.00000  2       37
siesta:      4.63094  21.41544   0.00000  2       38
siesta:      6.95932  22.75985   0.00000  2       39
siesta:      6.95932  25.44831   0.00000  2       40
siesta:     -4.68258  10.66124   0.00000  2       41
siesta:     -4.68258  13.34970   0.00000  2       42
siesta:     -2.35420  14.69411   0.00000  2       43
siesta:     -0.02582  18.72698   0.00000  2       44
siesta:     -0.02582  21.41544   0.00000  2       45
siesta:      2.30256  25.44831   0.00000  2       46
siesta:     -7.01096  14.69411   0.00000  2       47
siesta:     -7.01096  17.38257   0.00000  2       48
siesta:     -4.68258  18.72698   0.00000  2       49
siesta:     -4.68258  21.41544   0.00000  2       50
siesta:     -2.35420  22.75985   0.00000  2       51
siesta:     -2.35420  25.44831   0.00000  2       52
siesta:     -9.33934  18.72698   0.00000  2       53
siesta:     -9.33934  21.41544   0.00000  2       54
siesta:     -7.01096  25.44831   0.00000  2       55
siesta:    -11.66772  22.75985   0.00000  2       56
siesta:    -11.66772  25.44831   0.00000  2       57
siesta:     -9.33934  26.79272   0.00000  2       58
siesta:      4.63094  26.79272   0.00000  2       59
siesta:     -0.02582  26.79272   0.00000  2       60
siesta:     -0.02582  29.48119   0.00000  2       61
siesta:     -4.68258  26.79272   0.00000  2       62
siesta:     -4.68258  29.48119   0.00000  2       63
siesta:      2.30256  30.82560   0.00000  2       64
siesta:      2.30256  33.51406   0.00000  2       65
siesta:     -2.35420  33.51406   0.00000  2       66
siesta:     -7.01096  30.82560   0.00000  2       67
siesta:     -7.01096  33.51406   0.00000  2       68
siesta:     -0.02582  34.85847   0.00000  2       69
siesta:     -0.02582  37.54693   0.00000  2       70
siesta:     -0.02582  42.92421   0.00000  2       71
siesta:     -0.02582  45.61267   0.00000  2       72

siesta: System type = slab      

initatomlists: Number of atoms, orbitals, and projectors:     72   936  1152

siesta: ******************** Simulation parameters ****************************
siesta:
siesta: The following are some of the parameters of the simulation.
siesta: A complete list of the parameters used, including default values,
siesta: can be found in file out.fdf
siesta:
redata: Non-Collinear-spin run           =     F
redata: SpinPolarized (Up/Down) run      =     F
redata: Number of spin components        =     1
redata: Long output                      =     F
redata: Number of Atomic Species         =        2
redata: Charge density info will appear in .RHO file
redata: Write Mulliken Pop.              =     NO
redata: Mesh Cutoff                      =   200.0000  Ry
redata: Net charge of the system         =     0.0000 |e|
redata: Max. number of SCF Iter          =      500
redata: SCF convergence failure will abort job
redata: Performing Pulay mixing using    =    10 iterations
redata: Mix DM in first SCF step ?       =     F
redata: Write Pulay info on disk?        =     F
redata: Discard 1st Pulay DM after  kick =     F
redata: New DM Mixing Weight             =     0.0500
redata: New DM Occupancy tolerance       = 0.000000000001
redata: No kicks to SCF
redata: DM Mixing Weight for Kicks       =     0.5000
redata: DM Tolerance for SCF             =     0.000100
redata: Require Energy convergence for SCF =     F
redata: DM Energy tolerance for SCF      =     0.000100 eV
redata: Require Harris convergence for SCF =     F
redata: DM Harris energy tolerance for SCF =     0.000100 eV
redata: Using Saved Data (generic)   =     F
redata: Use continuation files for DM    =     T
redata: Neglect nonoverlap interactions  =     F
redata: Method of Calculation            =     Diagonalization
redata: Divide and Conquer               =     T
redata: Electronic Temperature           =     0.0019  Ry
redata: Fix the spin of the system       =     F
redata: Dynamics option                  =     Verlet MD run
redata: Initial MD time step             =        1
redata:   Final MD time step             =        1
redata: Length of MD time step           =     1.0000  fs
redata: Initial Temperature of MD run    =     0.0000  K
redata: Perform a MD quench              =     F
redata: ***********************************************************************
Total number of electrons:   299.000000
Total ionic charge:   299.000000

* ProcessorY, Blocksize:    3  24

k-point displ. along   1 input, could be:     0.50    0.00
k-point displ. along   2 input, could be:     0.50    0.00
 Kpoints in:          231 . Kpoints trimmed:          231

siesta: k-grid: Number of k-points =   231
siesta: k-grid: Cutoff (effective) =     5.000 Ang
siesta: k-grid: Supercell and displacements
siesta: k-grid:   21   0   0      0.500
siesta: k-grid:    0  21   0      0.500
siesta: k-grid:    0   0   1      0.000
Naive supercell factors:     2    2    2

superc: Internal auxiliary supercell:     2 x     2 x     2  =       8
superc: Number of atoms, orbitals, and projectors:    576   7488   9216

* Maximum dynamic memory allocated =     4 MB

siesta:                 ==============================
                            Begin MD step =      1
                        ==============================

superc: Internal auxiliary supercell:     2 x     2 x     2  =       8
superc: Number of atoms, orbitals, and projectors:    576   7488   9216

outcell: Unit cell vectors (Ang):
       12.804619    7.392750    0.000000
        0.000000   14.785500    0.000000
        0.000000    0.000000   10.000000

outcell: Cell vector modules (Ang)   :   14.785500   14.785500   10.000000
outcell: Cell angles (23,13,12) (deg):     90.0000     90.0000     60.0000
outcell: Cell volume (Ang**3)        :   1893.2269
New_DM. Step:     1
Initializing Density Matrix...

InitMesh: MESH =   120 x   120 x    90 =     1296000
InitMesh: Mesh cutoff (required, used) =   200.000   223.865 Ry

* Maximum dynamic memory allocated =   136 MB

stepf: Fermi-Dirac step function

siesta: Program's energy decomposition (eV):
siesta: Ebs     =     -6071.698456
siesta: Eions   =     20171.226357
siesta: Ena     =      4822.842261
siesta: Ekin    =      7301.325480
siesta: Enl     =       302.788150
siesta: DEna    =        -0.000015
siesta: DUscf   =         0.000000
siesta: DUext   =         0.000000
siesta: Exc     =     -4443.463702
siesta: eta*DQ  =         0.000000
siesta: Emadel  =         0.000000
siesta: Emeta   =         0.000000
siesta: Emolmec =         0.000000
siesta: Ekinion =         0.000000
siesta: Eharris =    -11830.773838
siesta: Etot    =    -12187.734183
siesta: FreeEng =    -12187.734183

siesta: iscf   Eharris(eV)      E_KS(eV)   FreeEng(eV)   dDmax  Ef(eV)
siesta:    1   -11830.7738   -12187.7342   -12187.7342  5.8875 -7.3317
timer: Routine,Calls,Time,% = IterSCF        1    5381.817  99.73
elaps: Routine,Calls,Wall,% = IterSCF        1     469.333  99.78
siesta:    2   -15475.5585   -11254.0470   -11254.0938  6.7910 -3.0157
siesta:    3   -11816.6781   -11903.2094   -11903.2680  1.3674 -3.8490
siesta:    4   -11749.0778   -11845.4837   -11845.5283  1.2519 -4.0224
siesta:    5   -11713.3337   -11805.2304   -11805.2748  1.2624 -3.8760
siesta:    6   -11695.4993   -11781.3781   -11781.4313  0.8738 -4.0907
siesta:    7   -11689.7395   -11764.4847   -11764.5307  0.7720 -4.0518
siesta:    8   -11685.8114   -11748.1629   -11748.2165  0.7626 -4.0439
siesta:    9   -11683.4378   -11730.2983   -11730.3692  0.5728 -4.1369
siesta:   10   -11683.1238   -11718.6174   -11718.6868  0.5497 -4.0690
siesta:   11   -11682.4498   -11708.7708   -11708.8218  0.3924 -4.0990
siesta:   12   -11682.8671   -11680.8540   -11680.9101  0.3059 -4.0754
siesta:   13   -11682.5076   -11677.9992   -11678.0645  0.2794 -4.0816
siesta:   14   -11682.0109   -11677.6963   -11677.7517  0.2473 -4.0987
siesta:   15   -11681.8688   -11676.6785   -11676.7374  0.2390 -4.1541
siesta:   16   -11681.8438   -11678.2736   -11678.3263  0.0961 -4.1731
siesta:   17   -11681.6581   -11678.4871   -11678.5470  0.0732 -4.1922
siesta:   18   -11681.6016   -11678.3152   -11678.3801  0.0840 -4.1584
siesta:   19   -11681.5390   -11677.5181   -11677.5784  0.0667 -4.1636
siesta:   20   -11681.5079   -11677.5603   -11677.6220  0.0409 -4.1663
siesta:   21   -11681.5038   -11679.4785   -11679.5410  0.0399 -4.1690
siesta:   22   -11681.5005   -11680.5568   -11680.6190  0.0369 -4.1702
siesta:   23   -11681.4945   -11681.1449   -11681.2074  0.0297 -4.1685
siesta:   24   -11681.4922   -11680.7752   -11680.8385  0.0260 -4.1719
siesta:   25   -11681.4904   -11680.7967   -11680.8599  0.0207 -4.1716
siesta:   26   -11681.4895   -11680.8463   -11680.9099  0.0081 -4.1676
siesta:   27   -11681.4895   -11680.9411   -11681.0043  0.0069 -4.1679
siesta:   28   -11681.4892   -11681.0340   -11681.0973  0.0047 -4.1684
siesta:   29   -11681.4889   -11681.2515   -11681.3149  0.0032 -4.1684
siesta:   30   -11681.4888   -11681.3810   -11681.4445  0.0012 -4.1678
siesta:   31   -11681.4888   -11681.3939   -11681.4574  0.0009 -4.1679
siesta:   32   -11681.4888   -11681.4070   -11681.4706  0.0005 -4.1680
siesta:   33   -11681.4887   -11681.4620   -11681.5255  0.0010 -4.1685
siesta:   34   -11681.4887   -11681.4789   -11681.5424  0.0003 -4.1684
siesta:   35   -11681.4888   -11681.4831   -11681.5467  0.0001 -4.1683
siesta:   36   -11681.4888   -11681.4915   -11681.5550  0.0001 -4.1682
siesta:   37   -11681.4888   -11681.4959   -11681.5594  0.0001 -4.1682
siesta:   38   -11681.4888   -11681.4975   -11681.5611  0.0001 -4.1682

siesta: E_KS(eV) =           -11681.4957

siesta: E_KS - E_eggbox =    -11681.4957

siesta: Atomic forces (eV/Ang):
----------------------------------------
   Tot   -0.345624   -0.135242    0.000000
----------------------------------------
   Max  653.416854
   Res  165.513530    sqrt( Sum f_i^2 / 3N )
----------------------------------------
   Max  653.416854    constrained

Stress-tensor-Voigt (kbar):     -664.07    -2932.83       -0.09        1.52        0.00        0.00
(Free)E + p*V (eV/cell)   -10264.7708
Target enthalpy (eV/cell)   -11681.5593

siesta: Stress tensor (static) (eV/Ang**3):
        -0.414473    0.000950    0.000000
         0.000949   -1.830508    0.000000
         0.000000    0.000000   -0.000057

siesta: Pressure (static):       1198.99520928  kBar

siesta: Stress tensor (total) (eV/Ang**3):
        -0.414473    0.000950    0.000000
         0.000949   -1.830508    0.000000
         0.000000    0.000000   -0.000057

siesta: Pressure (total):       1198.99520928  kBar

siesta: Temp_ion =       0.000 K

* Maximum dynamic memory allocated =   149 MB
Computing bands...

siesta: Program's energy decomposition (eV):
siesta: Ebs     =     -4833.591223
siesta: Eions   =     20171.226357
siesta: Ena     =      4822.842261
siesta: Ekin    =     10291.061046
siesta: Enl     =     -1350.248068
siesta: DEna    =      -763.044396
siesta: DUscf   =        99.355512
siesta: DUext   =         0.000000
siesta: Exc     =     -4610.235736
siesta: eta*DQ  =         0.000000
siesta: Emadel  =         0.000000
siesta: Emeta   =         0.000000
siesta: Emolmec =         0.000000
siesta: Ekinion =         0.000000
siesta: Eharris =    -11681.488767
siesta: Etot    =    -11681.495739
siesta: FreeEng =    -11681.559266

siesta: Final energy (eV):
siesta:  Band Struct. =   -4833.591223
siesta:       Kinetic =   10291.061046
siesta:       Hartree =   33517.924076
siesta:    Ext. field =       0.000000
siesta:   Exch.-corr. =   -4610.235736
siesta:  Ion-electron =  -76924.698053
siesta:       Ion-ion =   26044.452929
siesta:       Ekinion =       0.000000
siesta:         Total =  -11681.495739

siesta: Atomic forces (eV/Ang):
siesta:      1   -1.321272  122.388528    0.000000
siesta:      2  -37.310454 -653.416854    0.000000
siesta:      3   -1.659174 -123.178689    0.000000
siesta:      4   -0.706691    5.386821    0.000000
siesta:      5   -1.941112    4.122829    0.000000
siesta:      6  -27.794986   -5.301504    0.000000
siesta:      7    1.535494   -0.436259    0.000000
siesta:      8    0.489812    1.433662    0.000000
siesta:      9    1.759319   -0.937655    0.000000
siesta:     10   -1.238781   -3.531753    0.000000
siesta:     11  -26.596974    5.464427    0.000000
siesta:     12  -11.096460  550.971877    0.000000
siesta:     13   -3.227953 -125.373733    0.000000
siesta:     14    6.764117  133.157350    0.000000
siesta:     15  -17.693670 -546.037554    0.000000
siesta:     16    7.224715 -544.650064    0.000000
siesta:     17   28.229560    2.511383    0.000000
siesta:     18   25.805911 -554.211780    0.000000
siesta:     19    1.240119    0.086842    0.000000
siesta:     20   -2.903602    0.694070    0.000000
siesta:     21    1.343065    2.279167    0.000000
siesta:     22   -1.381873    0.138907    0.000000
siesta:     23  -24.760930    3.625197    0.000000
siesta:     24    7.116569  545.025445    0.000000
siesta:     25   25.808967  554.328375    0.000000
siesta:     26   28.252638   -2.338212    0.000000
siesta:     27   -3.014108   -0.805972    0.000000
siesta:     28    2.103176    0.269219    0.000000
siesta:     29   -1.363334    0.385112    0.000000
siesta:     30    1.791097   -0.937408    0.000000
siesta:     31    0.157662   -7.077268    0.000000
siesta:     32  -22.370224  547.754327    0.000000
siesta:     33    2.748182 -131.060632    0.000000
siesta:     34    4.510284  548.470515    0.000000
siesta:     35    1.124800 -126.543169    0.000000
siesta:     36   29.045579  563.003247    0.000000
siesta:     37   24.221219   -6.565604    0.000000
siesta:     38   -0.976684   -0.320292    0.000000
siesta:     39   -0.266180    0.308098    0.000000
siesta:     40   -0.364643   -0.154559    0.000000
siesta:     41  -30.737290  653.002614    0.000000
siesta:     42  -26.209467   -6.114585    0.000000
siesta:     43  -15.240152  555.320326    0.000000
siesta:     44   12.041777  572.348869    0.000000
siesta:     45    0.299902    0.627576    0.000000
siesta:     46   -0.064022   -0.108134    0.000000
siesta:     47    2.600680   -1.723153    0.000000
siesta:     48   -1.008364   -0.626652    0.000000
siesta:     49    0.206867    3.225462    0.000000
siesta:     50   -0.789789   -0.212027    0.000000
siesta:     51    0.344930    0.671962    0.000000
siesta:     52   -0.170672   -0.419975    0.000000
siesta:     53    0.633121    0.683038    0.000000
siesta:     54   -1.175675   -1.937622    0.000000
siesta:     55    0.164903   -1.914069    0.000000
siesta:     56    0.416004    6.843462    0.000000
siesta:     57    0.263851   -6.637298    0.000000
siesta:     58   -0.916544    3.990055    0.000000
siesta:     59    0.381118    0.385641    0.000000
siesta:     60    0.657745   -1.086234    0.000000
siesta:     61   10.059562 -572.461065    0.000000
siesta:     62    0.102401   -0.042231    0.000000
siesta:     63   -0.108949   -2.930239    0.000000
siesta:     64   24.536747    6.976109    0.000000
siesta:     65   29.042386 -562.834558    0.000000
siesta:     66  -11.176111 -557.288391    0.000000
siesta:     67   -1.459724   -1.509170    0.000000
siesta:     68    2.810288    2.380228    0.000000
siesta:     69    1.553295  126.193348    0.000000
siesta:     70    3.255403 -547.944117    0.000000
siesta:     71   -2.515842  124.806963    0.000000
siesta:     72  -11.427183 -550.727812    0.000000
siesta: ----------------------------------------
siesta:    Tot   -0.345624   -0.135242    0.000000

siesta: Stress tensor (static) (eV/Ang**3):
siesta:    -0.414473    0.000950    0.000000
siesta:     0.000949   -1.830508    0.000000
siesta:     0.000000    0.000000   -0.000057

siesta: Cell volume =       1893.226884 Ang**3

siesta: Pressure (static):
siesta:                Solid            Molecule  Units
siesta:           0.00815044          0.12944166  Ry/Bohr**3
siesta:           0.74834586         11.88489265  eV/Ang**3
siesta:        1198.99520928      19041.90312158  kBar
(Free)E+ p_basis*V_orbitals  =      -11652.394247
(Free)Eharris+ p_basis*V_orbitals  =      -11652.385471

siesta: Electric dipole (a.u.)  =    0.000000    0.000000    0.000000
siesta: Electric dipole (Debye) =    0.000000    0.000000    0.000000

* Maximum dynamic memory allocated : Node    0 =   149 MB
* Maximum dynamic memory allocated : Node    1 =    59 MB
* Maximum dynamic memory allocated : Node    2 =    60 MB
* Maximum dynamic memory allocated : Node    3 =   136 MB
* Maximum dynamic memory allocated : Node    4 =   143 MB
* Maximum dynamic memory allocated : Node    5 =    53 MB
* Maximum dynamic memory allocated : Node    6 =    55 MB
* Maximum dynamic memory allocated : Node    7 =   138 MB
* Maximum dynamic memory allocated : Node    8 =   132 MB
* Maximum dynamic memory allocated : Node    9 =    53 MB
* Maximum dynamic memory allocated : Node   10 =    55 MB
* Maximum dynamic memory allocated : Node   11 =   125 MB

* Maximum memory occured during matrixMtoO                    

timer: CPU execution times:
timer:  Routine       Calls   Time/call    Tot.time        %
timer:  siesta            1  202563.975  202563.975   100.00
timer:  Setup             1       3.234       3.234     0.00
timer:  bands             3     420.797    1262.392     0.62
timer:  writewave         1       0.006       0.006     0.00
timer:  KSV_init          1       0.001       0.001     0.00
timer:  IterMD            1  201290.390  201290.390    99.37
timer:  hsparse           1       0.163       0.163     0.00
timer:  overlap           1       6.376       6.376     0.00
timer:  IterSCF          38    5293.686  201160.073    99.31
timer:  kinefsm           2       3.232       6.464     0.00
timer:  nlefsm            2      18.538      37.076     0.02
timer:  DHSCF            39      65.808    2566.518     1.27
timer:  DHSCF1            1       0.903       0.903     0.00
timer:  DHSCF2            1      25.015      25.015     0.01
timer:  REORD           314       0.002       0.743     0.00
timer:  POISON           40       0.622      24.895     0.01
timer:  DHSCF3           39      64.592    2519.103     1.24
timer:  rhoofd           39      12.891     502.743     0.25
timer:  cellXC           39       3.000     117.016     0.06
timer:  vmat             39      30.495    1189.290     0.59
timer:  MolMec            2       0.000       0.000     0.00
timer:  diagon           38    5225.710  198576.989    98.03
timer:  c-eigval       8899      10.397   92521.619    45.68
timer:  c-buildHS      8899       0.031     279.201     0.14
timer:  cdiag         17677      10.669  188591.850    93.10
timer:  cdiag1        17677       0.479    8459.228     4.18
timer:  cdiag2        17677       3.390   59920.814    29.58
timer:  cdiag3        17677       6.337  112014.291    55.30
timer:  cdiag4        17677       0.166    2941.202     1.45
timer:  c-eigvec       8778      11.004   96590.026    47.68
timer:  c-buildD       8778       1.217   10679.190     5.27
timer:  DHSCF4            1      21.277      21.277     0.01
timer:  dfscf             1      19.841      19.841     0.01
timer:  overfsm           1       0.281       0.281     0.00
timer:  optical           1       7.395       7.395     0.00
  

elaps: ELAPSED times:
elaps:  Routine       Calls   Time/call    Tot.time        %
elaps:  siesta            1   17655.403   17655.403   100.00
elaps:  Setup             1       0.281       0.281     0.00
elaps:  bands             3      36.695     110.084     0.62
elaps:  writewave         1       0.002       0.002     0.00
elaps:  KSV_init          1       0.000       0.000     0.00
elaps:  IterMD            1   17544.395   17544.395    99.37
elaps:  hsparse           1       0.016       0.016     0.00
elaps:  overlap           1       0.711       0.711     0.00
elaps:  IterSCF          38     461.402   17533.285    99.31
elaps:  kinefsm           2       0.363       0.727     0.00
elaps:  nlefsm            2       1.854       3.708     0.02
elaps:  DHSCF            39       5.784     225.558     1.28
elaps:  DHSCF1            1       0.077       0.077     0.00
elaps:  DHSCF2            1       2.180       2.180     0.01
elaps:  REORD           314       0.000       0.098     0.00
elaps:  POISON           40       0.055       2.219     0.01
elaps:  DHSCF3           39       5.630     219.585     1.24
elaps:  rhoofd           39       2.453      95.667     0.54
elaps:  cellXC           39       0.261      10.182     0.06
elaps:  vmat             39       2.659     103.688     0.59
elaps:  MolMec            2       0.000       0.000     0.00
elaps:  diagon           38     455.475   17308.066    98.03
elaps:  c-eigval       8899       0.906    8064.195    45.68
elaps:  c-buildHS      8899       0.003      30.843     0.17
elaps:  cdiag         17677       0.925   16350.602    92.61
elaps:  cdiag1        17677       0.041     728.071     4.12
elaps:  cdiag2        17677       0.296    5231.099    29.63
elaps:  cdiag3        17677       0.553    9780.977    55.40
elaps:  cdiag4        17677       0.014     243.004     1.38
elaps:  c-eigvec       8778       0.951    8347.059    47.28
elaps:  c-buildD       8778       0.114    1000.960     5.67
elaps:  DHSCF4            1       3.681       3.681     0.02
elaps:  dfscf             1       3.490       3.490     0.02
elaps:  overfsm           1       0.031       0.031     0.00
elaps:  optical           1       0.000       0.000     0.00
  
>> End of run:   8-MAY-2016   1:54:58
