Siesta Version:                                        siesta-3.2-pl-3
Architecture  : x86_64-unknown-linux-gnu--unknown
Compiler flags: mpiifort -g -O2 -fPIC -xSSE4.1 -fp-model source -shared-intel 
PARALLEL version

* Running on    8 nodes in parallel
>> Start of run:  18-APR-2016  12:15:20

                           ***********************       
                           *  WELCOME TO SIESTA  *       
                           ***********************       

reinit: Reading from standard input
************************** Dump of input data file ****************************
#(1) General system descriptors
SystemName            GRP_doping    # Descriptive name of the system
SystemLabel           GRP_doping    # Short name for naming files
%include STRUCT.fdf
%include KPT.fdf
%include BASIS.fdf
#%include TS.fdf # for transiesta calculation
#(4) DFT, Grid, SCF
XC.functional         GGA           # LDA or GGA (default = LDA)
XC.authors            PBE           # CA (Ceperley-Aldr) = PZ
                                    #    (Perdew-Zunger) - LDA - Default
                                    # PW92 (Perdew-Wang-92) - LDA
                                    # PBE (Perdew-Burke-Ernzerhof) - GGA
MeshCutoff            200.000000    Ry      # Default: 50.0 Ry ~ 0.444 Bohr
                                    #         100.0 Ry ~ 0.314 Bohr
MaxSCFIterations      500           # Default: 50
DM.MixingWeight       0.05          # Default: 0.25
DM.NumberPulay        10            # Default: 0
DM.PulayOnFile        F             # SystemLabel.P1, SystemLabel.P2
DM.Tolerance          1.d-4         # Default: 1.d-4
DM.UseSaveDM          .true.        # because of the bug
SCFMustConverge       .true.
NeglNonOverlapInt     F             # Default: F
#(5) Eigenvalue problem: order-N or diagonalization
SolutionMethod        Diagon        # or Transiesta
ElectronicTemperature 300.0 K       # Default: 300.0 K
#(6) Molecular dynamics and relaxations
#MD.TypeOfRun          CG            # Type of dynamics:
#MD.VariableCell       F
#MD.NumCGsteps         0           # 0 for single-point / 100 for gopt
#MD.MaxCGDispl         0.2 Bohr      # Default: 0.2 Bohr
#MD.MaxForceTol        0.02 eV/Ang   # Default: 0.04 eV/Ang
#MD.MaxStressTol       1.0 GPa       # Default: 1.0 GPa
# Geometry Constraints
#%block GeometryConstraints
#	position from 1 to 44
#%endblock GeometryConstraints
BandLinesScale   pi/a
%block BandLines
 1   0.00000000  0.00000000  0.00000000
50   0.00000000  0.07809418  0.00000000
50   0.04509075  0.07809242  0.00000000
20   0.00000000  0.00000000  0.00000000
%endblock BandLines
************************** End of input data file *****************************

reinit: -----------------------------------------------------------------------
reinit: System Name: GRP_doping
reinit: -----------------------------------------------------------------------
reinit: System Label: GRP_doping                                                  
reinit: -----------------------------------------------------------------------

initatom: Reading input for the pseudopotentials and atomic orbitals ----------
 Species number:            1  Label: B Atomic number:           5
 Species number:            2  Label: C Atomic number:           6
Ground state valence configuration:   2s02  2p01
Reading pseudopotential information in formatted form from B.psf

Valence configuration for pseudopotential generation:
2s( 2.00) rc: 1.74
2p( 1.00) rc: 1.74
3d( 0.00) rc: 1.74
4f( 0.00) rc: 1.74
Ground state valence configuration:   2s02  2p02
Reading pseudopotential information in formatted form from C.psf

Valence configuration for pseudopotential generation:
2s( 2.00) rc: 1.54
2p( 2.00) rc: 1.54
3d( 0.00) rc: 1.54
4f( 0.00) rc: 1.54
For B, standard SIESTA heuristics set lmxkb to 3
 (one more than the basis l, including polarization orbitals).
Use PS.lmax or PS.KBprojectors blocks to override.
For C, standard SIESTA heuristics set lmxkb to 3
 (one more than the basis l, including polarization orbitals).
Use PS.lmax or PS.KBprojectors blocks to override.

<basis_specs>
===============================================================================
B                    Z=   5    Mass=  10.810        Charge= 0.17977+309
Lmxo=1 Lmxkb= 3    BasisType=split      Semic=F
L=0  Nsemic=0  Cnfigmx=2
          n=1  nzeta=2  polorb=0
            splnorm:   0.15000    
               vcte:    0.0000    
               rinn:    0.0000    
                rcs:    0.0000      0.0000    
            lambdas:    1.0000      1.0000    
L=1  Nsemic=0  Cnfigmx=2
          n=1  nzeta=2  polorb=1
            splnorm:   0.15000    
               vcte:    0.0000    
               rinn:    0.0000    
                rcs:    0.0000      0.0000    
            lambdas:    1.0000      1.0000    
-------------------------------------------------------------------------------
L=0  Nkbl=1  erefs: 0.17977+309
L=1  Nkbl=1  erefs: 0.17977+309
L=2  Nkbl=1  erefs: 0.17977+309
L=3  Nkbl=1  erefs: 0.17977+309
===============================================================================
</basis_specs>

atom: Called for B                     (Z =   5)

read_vps: Pseudopotential generation method:
read_vps: ATM3      Troullier-Martins                       
Total valence charge:    3.00000

read_vps: Pseudopotential includes a core correction:
read_vps: Pseudo-core for xc-correction

xc_check: Exchange-correlation functional:
xc_check: GGA Perdew, Burke & Ernzerhof 1996
V l=0 = -2*Zval/r beyond r=  1.7165
V l=1 = -2*Zval/r beyond r=  1.7165
V l=2 = -2*Zval/r beyond r=  1.7165
V l=3 = -2*Zval/r beyond r=  1.6951
All V_l potentials equal beyond r=  1.7165
This should be close to max(r_c) in ps generation
All pots = -2*Zval/r beyond r=  1.7165

VLOCAL1: 99.0% of the norm of Vloc inside     14.733 Ry
VLOCAL1: 99.9% of the norm of Vloc inside     33.577 Ry
atom: Maximum radius for 4*pi*r*r*local-pseudopot. charge    2.04484
atom: Maximum radius for r*vlocal+2*Zval:    1.75994
GHOST: No ghost state for L =  0
GHOST: No ghost state for L =  1
GHOST: No ghost state for L =  2
GHOST: No ghost state for L =  3

KBgen: Kleinman-Bylander projectors: 
   l= 0   rc=  1.897051   el= -0.693730   Ekb=  4.595746   kbcos=  0.286105
   l= 1   rc=  1.920920   el= -0.265236   Ekb= -2.350715   kbcos= -0.315747
   l= 2   rc=  2.044840   el=  0.002055   Ekb= -0.690767   kbcos= -0.013822
   l= 3   rc=  2.149707   el=  0.003188   Ekb= -0.315358   kbcos= -0.002055

KBgen: Total number of  Kleinman-Bylander projectors:   16
atom: -------------------------------------------------------------------------

atom: SANKEY-TYPE ORBITALS:
atom: Selected multiple-zeta basis: split     

SPLIT: Orbitals with angular momentum L= 0

SPLIT: Basis orbitals for state 2s

SPLIT: PAO cut-off radius determined from an
SPLIT: energy shift=  0.007350 Ry

   izeta = 1
                 lambda =    1.000000
                     rc =    5.422032
                 energy =   -0.686029
                kinetic =    0.576707
    potential(screened) =   -1.262736
       potential(ionic) =   -3.271094

   izeta = 2
                 rmatch =    4.222573
              splitnorm =    0.150000
                 energy =   -0.602132
                kinetic =    0.858975
    potential(screened) =   -1.461107
       potential(ionic) =   -3.582536

SPLIT: Orbitals with angular momentum L= 1

SPLIT: Basis orbitals for state 2p

SPLIT: PAO cut-off radius determined from an
SPLIT: energy shift=  0.007350 Ry

   izeta = 1
                 lambda =    1.000000
                     rc =    6.790259
                 energy =   -0.258578
                kinetic =    1.481412
    potential(screened) =   -1.739989
       potential(ionic) =   -3.657461

   izeta = 2
                 rmatch =    4.608740
              splitnorm =    0.150000
                 energy =   -0.173757
                kinetic =    2.186690
    potential(screened) =   -2.360447
       potential(ionic) =   -4.464260

POLgen: Perturbative polarization orbital with L=  2

POLgen: Polarization orbital for state 2p

   izeta = 1
                     rc =    6.790259
                 energy =    0.684082
                kinetic =    1.471481
    potential(screened) =   -0.787399
       potential(ionic) =   -2.406985
atom: Total number of Sankey-type orbitals: 13

atm_pop: Valence configuration (for local Pseudopot. screening):
 2s( 2.00)                                                            
 2p( 1.00)                                                            
Vna: chval, zval:    3.00000   3.00000

Vna:  Cut-off radius for the neutral-atom potential:   6.790259
comcore: Pseudo-core radius Rcore=  2.122997

atom: _________________________________________________________________________

<basis_specs>
===============================================================================
C                    Z=   6    Mass=  12.010        Charge= 0.17977+309
Lmxo=1 Lmxkb= 3    BasisType=split      Semic=F
L=0  Nsemic=0  Cnfigmx=2
          n=1  nzeta=2  polorb=0
            splnorm:   0.15000    
               vcte:    0.0000    
               rinn:    0.0000    
                rcs:    0.0000      0.0000    
            lambdas:    1.0000      1.0000    
L=1  Nsemic=0  Cnfigmx=2
          n=1  nzeta=2  polorb=1
            splnorm:   0.15000    
               vcte:    0.0000    
               rinn:    0.0000    
                rcs:    0.0000      0.0000    
            lambdas:    1.0000      1.0000    
-------------------------------------------------------------------------------
L=0  Nkbl=1  erefs: 0.17977+309
L=1  Nkbl=1  erefs: 0.17977+309
L=2  Nkbl=1  erefs: 0.17977+309
L=3  Nkbl=1  erefs: 0.17977+309
===============================================================================
</basis_specs>

atom: Called for C                     (Z =   6)

read_vps: Pseudopotential generation method:
read_vps: ATM3      Troullier-Martins                       
Total valence charge:    4.00000

read_vps: Pseudopotential includes a core correction:
read_vps: Pseudo-core for xc-correction

xc_check: Exchange-correlation functional:
xc_check: GGA Perdew, Burke & Ernzerhof 1996
V l=0 = -2*Zval/r beyond r=  1.5227
V l=1 = -2*Zval/r beyond r=  1.5227
V l=2 = -2*Zval/r beyond r=  1.5227
V l=3 = -2*Zval/r beyond r=  1.5038
All V_l potentials equal beyond r=  1.5227
This should be close to max(r_c) in ps generation
All pots = -2*Zval/r beyond r=  1.5227

VLOCAL1: 99.0% of the norm of Vloc inside     18.722 Ry
VLOCAL1: 99.9% of the norm of Vloc inside     42.668 Ry
atom: Maximum radius for 4*pi*r*r*local-pseudopot. charge    1.83678
atom: Maximum radius for r*vlocal+2*Zval:    1.58088
GHOST: No ghost state for L =  0
GHOST: No ghost state for L =  1
GHOST: No ghost state for L =  2
GHOST: No ghost state for L =  3

KBgen: Kleinman-Bylander projectors: 
   l= 0   rc=  1.704034   el= -1.009801   Ekb=  5.335044   kbcos=  0.316824
   l= 1   rc=  1.704034   el= -0.388707   Ekb= -3.785862   kbcos= -0.366464
   l= 2   rc=  1.791422   el=  0.001971   Ekb= -0.970471   kbcos= -0.009212
   l= 3   rc=  1.859892   el=  0.003065   Ekb= -0.399525   kbcos= -0.001223

KBgen: Total number of  Kleinman-Bylander projectors:   16
atom: -------------------------------------------------------------------------

atom: SANKEY-TYPE ORBITALS:
atom: Selected multiple-zeta basis: split     

SPLIT: Orbitals with angular momentum L= 0

SPLIT: Basis orbitals for state 2s

SPLIT: PAO cut-off radius determined from an
SPLIT: energy shift=  0.007350 Ry

   izeta = 1
                 lambda =    1.000000
                     rc =    4.632753
                 energy =   -1.002270
                kinetic =    0.855760
    potential(screened) =   -1.858031
       potential(ionic) =   -5.417575

   izeta = 2
                 rmatch =    3.431921
              splitnorm =    0.150000
                 energy =   -0.867111
                kinetic =    1.300804
    potential(screened) =   -2.167915
       potential(ionic) =   -5.962684

SPLIT: Orbitals with angular momentum L= 1

SPLIT: Basis orbitals for state 2p

SPLIT: PAO cut-off radius determined from an
SPLIT: energy shift=  0.007350 Ry

   izeta = 1
                 lambda =    1.000000
                     rc =    5.658549
                 energy =   -0.381140
                kinetic =    2.399701
    potential(screened) =   -2.780841
       potential(ionic) =   -6.206085

   izeta = 2
                 rmatch =    3.653288
              splitnorm =    0.150000
                 energy =   -0.249149
                kinetic =    3.542762
    potential(screened) =   -3.791911
       potential(ionic) =   -7.581078

POLgen: Perturbative polarization orbital with L=  2

POLgen: Polarization orbital for state 2p

   izeta = 1
                     rc =    5.658549
                 energy =    1.109913
                kinetic =    2.304789
    potential(screened) =   -1.194876
       potential(ionic) =   -4.013592
atom: Total number of Sankey-type orbitals: 13

atm_pop: Valence configuration (for local Pseudopot. screening):
 2s( 2.00)                                                            
 2p( 2.00)                                                            
Vna: chval, zval:    4.00000   4.00000

Vna:  Cut-off radius for the neutral-atom potential:   5.658549
comcore: Pseudo-core radius Rcore=  1.791422

atom: _________________________________________________________________________

prinput: Basis input ----------------------------------------------------------

PAO.BasisType split     

%block ChemicalSpeciesLabel
    1    5 B                       # Species index, atomic number, species label
    2    6 C                       # Species index, atomic number, species label
%endblock ChemicalSpeciesLabel

%block PAO.Basis                 # Define Basis set
B                     2                    # Species label, number of l-shells
 n=2   0   2                         # n, l, Nzeta 
   5.422      4.223   
   1.000      1.000   
 n=2   1   2 P   1                   # n, l, Nzeta, Polarization, NzetaPol
   6.790      4.609   
   1.000      1.000   
C                     2                    # Species label, number of l-shells
 n=2   0   2                         # n, l, Nzeta 
   4.633      3.432   
   1.000      1.000   
 n=2   1   2 P   1                   # n, l, Nzeta, Polarization, NzetaPol
   5.659      3.653   
   1.000      1.000   
%endblock PAO.Basis

prinput: ----------------------------------------------------------------------

coor:   Atomic-coordinates input format  =     Fractional

siesta: Atomic coordinates (Bohr) and species
siesta:     -0.02582   2.59549   0.00000  1        1
siesta:     -0.02582   5.28395   0.00000  1        2
siesta:     -2.35420  38.89134   0.00000  1        3
siesta:     -2.35420  41.57980   0.00000  1        4
siesta:      2.30256  38.89134   0.00000  1        5
siesta:      2.30256  41.57980   0.00000  1        6
siesta:      2.30256   6.62836   0.00000  1        7
siesta:      2.30256   9.31683   0.00000  1        8
siesta:     -2.35420   6.62836   0.00000  1        9
siesta:     -2.35420   9.31683   0.00000  1       10
siesta:     -0.02582  10.66124   0.00000  1       11
siesta:     -0.02582  13.34970   0.00000  1       12
siesta:     -0.02582  18.72698   0.00000  1       13
siesta:     -0.02582  21.41544   0.00000  1       14
siesta:      2.30256  22.75985   0.00000  1       15
siesta:      2.30256  25.44831   0.00000  1       16
siesta:     -2.35420  22.75985   0.00000  1       17
siesta:     -2.35420  25.44831   0.00000  1       18
siesta:     -0.02582  26.79272   0.00000  1       19
siesta:     -0.02582  29.48119   0.00000  1       20
siesta:      2.30256  30.82560   0.00000  1       21
siesta:      2.30256  33.51406   0.00000  1       22
siesta:     -0.02582  34.85847   0.00000  1       23
siesta:     -0.02582  37.54693   0.00000  1       24
siesta:     -0.02582  42.92421   0.00000  1       25
siesta:     -0.02582  45.61267   0.00000  1       26
siesta:      4.63094  34.85847   0.00000  2       27
siesta:      4.63094  37.54693   0.00000  2       28
siesta:      6.95932  30.82560   0.00000  2       29
siesta:      6.95932  33.51406   0.00000  2       30
siesta:      9.28770  26.79272   0.00000  2       31
siesta:      9.28770  29.48119   0.00000  2       32
siesta:     -4.68258  34.85847   0.00000  2       33
siesta:     -4.68258  37.54693   0.00000  2       34
siesta:      4.63094  10.66124   0.00000  2       35
siesta:      4.63094  13.34970   0.00000  2       36
siesta:      6.95932  14.69411   0.00000  2       37
siesta:      6.95932  17.38257   0.00000  2       38
siesta:      9.28770  18.72698   0.00000  2       39
siesta:      9.28770  21.41544   0.00000  2       40
siesta:     11.61608  22.75985   0.00000  2       41
siesta:     11.61608  25.44831   0.00000  2       42
siesta:      2.30256  14.69411   0.00000  2       43
siesta:      2.30256  17.38257   0.00000  2       44
siesta:      4.63094  18.72698   0.00000  2       45
siesta:      4.63094  21.41544   0.00000  2       46
siesta:      6.95932  22.75985   0.00000  2       47
siesta:      6.95932  25.44831   0.00000  2       48
siesta:     -4.68258  10.66124   0.00000  2       49
siesta:     -4.68258  13.34970   0.00000  2       50
siesta:     -2.35420  14.69411   0.00000  2       51
siesta:     -2.35420  17.38257   0.00000  2       52
siesta:     -7.01096  14.69411   0.00000  2       53
siesta:     -7.01096  17.38257   0.00000  2       54
siesta:     -4.68258  18.72698   0.00000  2       55
siesta:     -4.68258  21.41544   0.00000  2       56
siesta:     -9.33934  18.72698   0.00000  2       57
siesta:     -9.33934  21.41544   0.00000  2       58
siesta:     -7.01096  22.75985   0.00000  2       59
siesta:     -7.01096  25.44831   0.00000  2       60
siesta:    -11.66772  22.75985   0.00000  2       61
siesta:    -11.66772  25.44831   0.00000  2       62
siesta:     -9.33934  26.79272   0.00000  2       63
siesta:     -9.33934  29.48119   0.00000  2       64
siesta:      4.63094  26.79272   0.00000  2       65
siesta:      4.63094  29.48119   0.00000  2       66
siesta:     -4.68258  26.79272   0.00000  2       67
siesta:     -4.68258  29.48119   0.00000  2       68
siesta:     -2.35420  30.82560   0.00000  2       69
siesta:     -2.35420  33.51406   0.00000  2       70
siesta:     -7.01096  30.82560   0.00000  2       71
siesta:     -7.01096  33.51406   0.00000  2       72

siesta: System type = slab      

initatomlists: Number of atoms, orbitals, and projectors:     72   936  1152

siesta: ******************** Simulation parameters ****************************
siesta:
siesta: The following are some of the parameters of the simulation.
siesta: A complete list of the parameters used, including default values,
siesta: can be found in file out.fdf
siesta:
redata: Non-Collinear-spin run           =     F
redata: SpinPolarized (Up/Down) run      =     F
redata: Number of spin components        =     1
redata: Long output                      =     F
redata: Number of Atomic Species         =        2
redata: Charge density info will appear in .RHO file
redata: Write Mulliken Pop.              =     NO
redata: Mesh Cutoff                      =   200.0000  Ry
redata: Net charge of the system         =     0.0000 |e|
redata: Max. number of SCF Iter          =      500
redata: SCF convergence failure will abort job
redata: Performing Pulay mixing using    =    10 iterations
redata: Mix DM in first SCF step ?       =     F
redata: Write Pulay info on disk?        =     F
redata: Discard 1st Pulay DM after  kick =     F
redata: New DM Mixing Weight             =     0.0500
redata: New DM Occupancy tolerance       = 0.000000000001
redata: No kicks to SCF
redata: DM Mixing Weight for Kicks       =     0.5000
redata: DM Tolerance for SCF             =     0.000100
redata: Require Energy convergence for SCF =     F
redata: DM Energy tolerance for SCF      =     0.000100 eV
redata: Require Harris convergence for SCF =     F
redata: DM Harris energy tolerance for SCF =     0.000100 eV
redata: Using Saved Data (generic)   =     F
redata: Use continuation files for DM    =     T
redata: Neglect nonoverlap interactions  =     F
redata: Method of Calculation            =     Diagonalization
redata: Divide and Conquer               =     T
redata: Electronic Temperature           =     0.0019  Ry
redata: Fix the spin of the system       =     F
redata: Dynamics option                  =     Verlet MD run
redata: Initial MD time step             =        1
redata:   Final MD time step             =        1
redata: Length of MD time step           =     1.0000  fs
redata: Initial Temperature of MD run    =     0.0000  K
redata: Perform a MD quench              =     F
redata: ***********************************************************************
Total number of electrons:   262.000000
Total ionic charge:   262.000000

* ProcessorY, Blocksize:    2  24

k-point displ. along   1 input, could be:     0.50    0.00
k-point displ. along   2 input, could be:     0.50    0.00
 Kpoints in:          231 . Kpoints trimmed:          231

siesta: k-grid: Number of k-points =   231
siesta: k-grid: Cutoff (effective) =     5.000 Ang
siesta: k-grid: Supercell and displacements
siesta: k-grid:   21   0   0      0.500
siesta: k-grid:    0  21   0      0.500
siesta: k-grid:    0   0   1      0.000
Naive supercell factors:     2    2    2

superc: Internal auxiliary supercell:     2 x     2 x     2  =       8
superc: Number of atoms, orbitals, and projectors:    576   7488   9216

* Maximum dynamic memory allocated =     4 MB

siesta:                 ==============================
                            Begin MD step =      1
                        ==============================

superc: Internal auxiliary supercell:     2 x     2 x     2  =       8
superc: Number of atoms, orbitals, and projectors:    576   7488   9216

outcell: Unit cell vectors (Ang):
       12.804619    7.392750    0.000000
        0.000000   14.785500    0.000000
        0.000000    0.000000   10.000000

outcell: Cell vector modules (Ang)   :   14.785500   14.785500   10.000000
outcell: Cell angles (23,13,12) (deg):     90.0000     90.0000     60.0000
outcell: Cell volume (Ang**3)        :   1893.2269
New_DM. Step:     1
Initializing Density Matrix...

InitMesh: MESH =   120 x   120 x    90 =     1296000
InitMesh: Mesh cutoff (required, used) =   200.000   223.865 Ry

* Maximum dynamic memory allocated =   235 MB

stepf: Fermi-Dirac step function

siesta: Program's energy decomposition (eV):
siesta: Ebs     =     -5301.694272
siesta: Eions   =     15073.536580
siesta: Ena     =      4081.245113
siesta: Ekin    =      5006.990805
siesta: Enl     =       869.449012
siesta: DEna    =        -0.000006
siesta: DUscf   =         0.000000
siesta: DUext   =         0.000000
siesta: Exc     =     -4182.603039
siesta: eta*DQ  =         0.000000
siesta: Emadel  =         0.000000
siesta: Emeta   =         0.000000
siesta: Emolmec =         0.000000
siesta: Ekinion =         0.000000
siesta: Eharris =     -9217.036865
siesta: Etot    =     -9298.454695
siesta: FreeEng =     -9298.454695

siesta: iscf   Eharris(eV)      E_KS(eV)   FreeEng(eV)   dDmax  Ef(eV)
siesta:    1    -9217.0369    -9298.4547    -9298.4547  6.2839 -8.4286
timer: Routine,Calls,Time,% = IterSCF        1    4433.919  99.74
elaps: Routine,Calls,Wall,% = IterSCF        1     554.916  99.74
siesta:    2   -17246.2525    -7946.2022    -7946.2740 15.8213-11.5324
siesta:    3    -9454.4047    -9110.5731    -9110.6137  1.6955 -5.0652
siesta:    4    -9334.5705    -9070.0057    -9070.0057  1.7318 -4.9623
siesta:    5    -9150.9512    -9015.2175    -9015.2220  1.2042 -5.2454
siesta:    6    -9119.5974    -8992.0696    -8992.1061  1.0395 -5.4246
siesta:    7    -9076.8318    -8971.1349    -8971.1360  0.8794 -5.3041
siesta:    8    -9071.3713    -8965.6023    -8965.6232  0.8584 -5.2535
siesta:    9    -9060.6067    -8977.1950    -8977.2431  0.5424 -5.3490
siesta:   10    -9065.1154    -8988.9510    -8988.9891  0.4588 -5.0705
siesta:   11    -9061.7956    -8993.7643    -8993.8330  0.4013 -5.0544
siesta:   12    -9059.5001    -9008.7993    -9008.8726  0.3690 -5.2266
siesta:   13    -9060.0548    -9023.7054    -9023.7136  0.3296 -5.2003
siesta:   14    -9059.5303    -9030.7452    -9030.7481  0.2461 -5.3188
siesta:   15    -9059.3000    -9034.1662    -9034.2097  0.2301 -5.3043
siesta:   16    -9057.7779    -9041.2997    -9041.3158  0.2218 -5.3749
siesta:   17    -9057.3365    -9045.6002    -9045.6400  0.1864 -5.4062
siesta:   18    -9057.2143    -9047.7535    -9047.8051  0.1713 -5.4073
siesta:   19    -9057.1203    -9050.5501    -9050.5905  0.1027 -5.3915
siesta:   20    -9057.1025    -9052.4448    -9052.4998  0.1549 -5.4155
siesta:   21    -9057.0919    -9055.3509    -9055.3851  0.1247 -5.4175
siesta:   22    -9056.9902    -9055.3056    -9055.3302  0.0834 -5.4229
siesta:   23    -9056.9678    -9055.2590    -9055.2939  0.0655 -5.4200
siesta:   24    -9056.9370    -9055.6015    -9055.6383  0.0459 -5.4174
siesta:   25    -9056.9276    -9055.7255    -9055.7661  0.0297 -5.4171
siesta:   26    -9056.9203    -9056.4540    -9056.4977  0.0152 -5.4151
siesta:   27    -9056.9210    -9056.3599    -9056.4057  0.0145 -5.4147
siesta:   28    -9056.9190    -9056.5767    -9056.6204  0.0082 -5.4128
siesta:   29    -9056.9185    -9056.7176    -9056.7625  0.0061 -5.4132
siesta:   30    -9056.9181    -9056.8825    -9056.9272  0.0039 -5.4150
siesta:   31    -9056.9177    -9056.9221    -9056.9669  0.0027 -5.4148
siesta:   32    -9056.9179    -9056.9353    -9056.9805  0.0020 -5.4143
siesta:   33    -9056.9177    -9056.9106    -9056.9554  0.0014 -5.4136
siesta:   34    -9056.9177    -9056.8959    -9056.9409  0.0012 -5.4135
siesta:   35    -9056.9177    -9056.8969    -9056.9418  0.0011 -5.4133
siesta:   36    -9056.9178    -9056.9004    -9056.9454  0.0008 -5.4129
siesta:   37    -9056.9178    -9056.9096    -9056.9545  0.0007 -5.4127
siesta:   38    -9056.9178    -9056.9260    -9056.9708  0.0006 -5.4126
siesta:   39    -9056.9178    -9056.9355    -9056.9803  0.0005 -5.4128
siesta:   40    -9056.9177    -9056.9284    -9056.9733  0.0002 -5.4130
siesta:   41    -9056.9177    -9056.9253    -9056.9703  0.0002 -5.4130
siesta:   42    -9056.9177    -9056.9233    -9056.9683  0.0001 -5.4130
siesta:   43    -9056.9177    -9056.9196    -9056.9645  0.0001 -5.4131

siesta: E_KS(eV) =            -9056.9195

siesta: E_KS - E_eggbox =     -9056.9195

siesta: Atomic forces (eV/Ang):
----------------------------------------
   Tot   -0.101975   -0.071009    0.000000
----------------------------------------
   Max  549.290042
   Res  118.006770    sqrt( Sum f_i^2 / 3N )
----------------------------------------
   Max  549.290042    constrained

Stress-tensor-Voigt (kbar):     -581.90    -2114.15       -0.74        0.62        0.00        0.00
(Free)E + p*V (eV/cell)    -7994.7459
Target enthalpy (eV/cell)    -9056.9644

siesta: Stress tensor (static) (eV/Ang**3):
        -0.363191    0.000385    0.000000
         0.000385   -1.319536    0.000000
         0.000000    0.000000   -0.000460

siesta: Pressure (static):        898.93089886  kBar

siesta: Stress tensor (total) (eV/Ang**3):
        -0.363191    0.000385    0.000000
         0.000385   -1.319536    0.000000
         0.000000    0.000000   -0.000460

siesta: Pressure (total):        898.93089886  kBar

siesta: Temp_ion =       0.000 K

* Maximum dynamic memory allocated =   253 MB
Computing bands...

siesta: Program's energy decomposition (eV):
siesta: Ebs     =     -3993.740743
siesta: Eions   =     15073.536580
siesta: Ena     =      4081.245113
siesta: Ekin    =      7541.996663
siesta: Enl     =      -727.047321
siesta: DEna    =      -639.157357
siesta: DUscf   =        82.310878
siesta: DUext   =         0.000000
siesta: Exc     =     -4322.730881
siesta: eta*DQ  =         0.000000
siesta: Emadel  =         0.000000
siesta: Emeta   =         0.000000
siesta: Emolmec =         0.000000
siesta: Ekinion =         0.000000
siesta: Eharris =     -9056.917710
siesta: Etot    =     -9056.919484
siesta: FreeEng =     -9056.964439

siesta: Final energy (eV):
siesta:  Band Struct. =   -3993.740743
siesta:       Kinetic =    7541.996663
siesta:       Hartree =   23234.375085
siesta:    Ext. field =       0.000000
siesta:   Exch.-corr. =   -4322.730881
siesta:  Ion-electron =  -53768.886144
siesta:       Ion-ion =   18258.325793
siesta:       Ekinion =       0.000000
siesta:         Total =   -9056.919484

siesta: Atomic forces (eV/Ang):
siesta:      1   -2.949698  293.647332    0.000000
siesta:      2   -1.197678  -96.376327    0.000000
siesta:      3   -1.742197  101.592028    0.000000
siesta:      4    0.236118 -404.427466    0.000000
siesta:      5    1.030511  102.469697    0.000000
siesta:      6   -0.031383 -404.562921    0.000000
siesta:      7    4.060591  295.273309    0.000000
siesta:      8    1.371057  -98.945477    0.000000
siesta:      9   -1.388661  401.782883    0.000000
siesta:     10   -1.293400 -101.509765    0.000000
siesta:     11    0.568808  297.303646    0.000000
siesta:     12    0.048453 -103.230883    0.000000
siesta:     13    0.119901  307.257896    0.000000
siesta:     14    0.014607    2.022868    0.000000
siesta:     15    3.439437   -5.126227    0.000000
siesta:     16    3.119279    4.978043    0.000000
siesta:     17   -3.137987   -5.026982    0.000000
siesta:     18   -3.610928    5.425811    0.000000
siesta:     19   -0.460066   -2.813408    0.000000
siesta:     20    0.876657 -301.791992    0.000000
siesta:     21   17.304624   -0.124714    0.000000
siesta:     22   19.092255 -297.600970    0.000000
siesta:     23    0.541803  102.018507    0.000000
siesta:     24   -0.504542 -297.786893    0.000000
siesta:     25   -0.031368   92.623089    0.000000
siesta:     26   -0.009700 -304.184955    0.000000
siesta:     27   21.734158    1.471092    0.000000
siesta:     28   19.723842 -549.290042    0.000000
siesta:     29    2.277374    0.415709    0.000000
siesta:     30   -0.828558    2.396573    0.000000
siesta:     31    2.575325    1.948951    0.000000
siesta:     32   -1.017226    0.192845    0.000000
siesta:     33  -23.754282    3.587990    0.000000
siesta:     34  -21.513858 -548.613271    0.000000
siesta:     35   21.796313  549.190813    0.000000
siesta:     36   23.986817   -2.387477    0.000000
siesta:     37   -1.682798   -2.387913    0.000000
siesta:     38    2.636747   -0.462345    0.000000
siesta:     39   -1.421494   -0.636234    0.000000
siesta:     40    2.518896   -1.530704    0.000000
siesta:     41   -0.055032    7.227615    0.000000
siesta:     42   -0.016604   -7.161379    0.000000
siesta:     43   19.797761  412.962326    0.000000
siesta:     44   20.836823   -1.114777    0.000000
siesta:     45   -0.470664    1.752737    0.000000
siesta:     46    3.083460   -1.259197    0.000000
siesta:     47    0.167038    0.180033    0.000000
siesta:     48   -0.097046   -0.344327    0.000000
siesta:     49  -20.777451  549.090733    0.000000
siesta:     50  -24.049136   -2.277337    0.000000
siesta:     51  -19.946807  412.899737    0.000000
siesta:     52  -20.924619   -1.019443    0.000000
siesta:     53    1.692213   -2.307848    0.000000
siesta:     54   -2.696023   -0.592362    0.000000
siesta:     55    0.563107    1.706391    0.000000
siesta:     56   -3.299666   -1.199477    0.000000
siesta:     57    1.381038   -0.604236    0.000000
siesta:     58   -2.842432   -1.449850    0.000000
siesta:     59    0.001854    0.263841    0.000000
siesta:     60   -0.151121   -0.217103    0.000000
siesta:     61    0.206474    6.801520    0.000000
siesta:     62    0.233791   -6.871171    0.000000
siesta:     63   -2.614046    1.450142    0.000000
siesta:     64    1.508672    0.498743    0.000000
siesta:     65    3.553835    1.143635    0.000000
siesta:     66    2.055163   -2.035037    0.000000
siesta:     67   -2.977540    1.028197    0.000000
siesta:     68    0.743500   -1.353219    0.000000
siesta:     69  -19.961172    2.844227    0.000000
siesta:     70  -16.359745 -409.854415    0.000000
siesta:     71   -2.805513    0.703583    0.000000
siesta:     72    1.620165    2.254594    0.000000
siesta: ----------------------------------------
siesta:    Tot   -0.101975   -0.071009    0.000000

siesta: Stress tensor (static) (eV/Ang**3):
siesta:    -0.363191    0.000385    0.000000
siesta:     0.000385   -1.319536    0.000000
siesta:     0.000000    0.000000   -0.000460

siesta: Cell volume =       1893.226884 Ang**3

siesta: Pressure (static):
siesta:                Solid            Molecule  Units
siesta:           0.00611069          0.08836675  Ry/Bohr**3
siesta:           0.56106247          8.11353473  eV/Ang**3
siesta:         898.93089886      12999.45627132  kBar
(Free)E+ p_basis*V_orbitals  =       -9018.012034
(Free)Eharris+ p_basis*V_orbitals  =       -9018.010160

siesta: Electric dipole (a.u.)  =    0.000000    0.000000    0.000000
siesta: Electric dipole (Debye) =    0.000000    0.000000    0.000000

* Maximum dynamic memory allocated : Node    0 =   253 MB
* Maximum dynamic memory allocated : Node    1 =    87 MB
* Maximum dynamic memory allocated : Node    2 =    91 MB
* Maximum dynamic memory allocated : Node    3 =   240 MB
* Maximum dynamic memory allocated : Node    4 =   231 MB
* Maximum dynamic memory allocated : Node    5 =    84 MB
* Maximum dynamic memory allocated : Node    6 =    86 MB
* Maximum dynamic memory allocated : Node    7 =   212 MB

* Maximum memory occured during matrixMtoO                    

timer: CPU execution times:
timer:  Routine       Calls   Time/call    Tot.time        %
timer:  siesta            1  188084.098  188084.098   100.00
timer:  Setup             1       3.054       3.054     0.00
timer:  bands             3     269.154     807.462     0.43
timer:  writewave         1       0.018       0.018     0.00
timer:  KSV_init          1       0.005       0.005     0.00
timer:  IterMD            1  187267.738  187267.738    99.57
timer:  hsparse           1       0.392       0.392     0.00
timer:  overlap           1       7.806       7.806     0.00
timer:  IterSCF          43    4349.131  187012.651    99.43
timer:  kinefsm           2       4.039       8.078     0.00
timer:  nlefsm            2      21.985      43.971     0.02
timer:  DHSCF            44     144.766    6369.725     3.39
timer:  DHSCF1            1       0.992       0.992     0.00
timer:  DHSCF2            1      46.568      46.568     0.02
timer:  REORD           354       0.010       3.562     0.00
timer:  POISON           45       2.242     100.887     0.05
timer:  DHSCF3           44     142.562    6272.744     3.34
timer:  rhoofd           44      30.169    1327.423     0.71
timer:  cellXC           44       3.541     155.792     0.08
timer:  vmat             44      66.090    2907.967     1.55
timer:  MolMec            2       0.000       0.000     0.00
timer:  diagon           43    4203.079  180732.388    96.09
timer:  c-eigval      10054       6.675   67114.789    35.68
timer:  c-buildHS     10054       0.124    1242.526     0.66
timer:  cdiag         19987       6.869  137300.617    73.00
timer:  cdiag1        19987       0.426    8519.703     4.53
timer:  cdiag2        19987       1.908   38143.409    20.28
timer:  cdiag3        19987       3.939   78731.725    41.86
timer:  cdiag4        19987       0.222    4446.629     2.36
timer:  c-eigvec       9933       7.255   72067.089    38.32
timer:  c-buildD       9933       4.259   42305.003    22.49
timer:  DHSCF4            1      47.090      47.090     0.03
timer:  dfscf             1      44.365      44.365     0.02
timer:  overfsm           1       0.486       0.486     0.00
timer:  optical           1       5.098       5.098     0.00
  

elaps: ELAPSED times:
elaps:  Routine       Calls   Time/call    Tot.time        %
elaps:  siesta            1   23537.628   23537.628   100.00
elaps:  Setup             1       0.381       0.381     0.00
elaps:  bands             3      33.695     101.086     0.43
elaps:  writewave         1       0.002       0.002     0.00
elaps:  KSV_init          1       0.000       0.000     0.00
elaps:  IterMD            1   23435.488   23435.488    99.57
elaps:  hsparse           1       0.049       0.049     0.00
elaps:  overlap           1       0.977       0.977     0.00
elaps:  IterSCF          43     544.269   23403.577    99.43
elaps:  kinefsm           2       0.506       1.013     0.00
elaps:  nlefsm            2       2.726       5.453     0.02
elaps:  DHSCF            44      18.250     802.987     3.41
elaps:  DHSCF1            1       0.127       0.127     0.00
elaps:  DHSCF2            1       5.821       5.821     0.02
elaps:  REORD           354       0.001       0.458     0.00
elaps:  POISON           45       0.281      12.631     0.05
elaps:  DHSCF3           44      17.835     784.739     3.33
elaps:  rhoofd           44       8.544     375.932     1.60
elaps:  cellXC           44       0.442      19.460     0.08
elaps:  vmat             44       8.268     363.784     1.55
elaps:  MolMec            2       0.000       0.000     0.00
elaps:  diagon           43     526.013   22618.566    96.10
elaps:  c-eigval      10054       0.835    8397.282    35.68
elaps:  c-buildHS     10054       0.017     169.623     0.72
elaps:  cdiag         19987       0.850   16981.298    72.15
elaps:  cdiag1        19987       0.053    1061.723     4.51
elaps:  cdiag2        19987       0.239    4772.667    20.28
elaps:  cdiag3        19987       0.494    9864.617    41.91
elaps:  cdiag4        19987       0.028     563.180     2.39
elaps:  c-eigvec       9933       0.894    8878.246    37.72
elaps:  c-buildD       9933       0.547    5435.996    23.09
elaps:  DHSCF4            1      11.984      11.984     0.05
elaps:  dfscf             1      11.441      11.441     0.05
elaps:  overfsm           1       0.060       0.060     0.00
elaps:  optical           1       0.000       0.000     0.00
  
>> End of run:  18-APR-2016  18:47:38
