Siesta Version:                                        siesta-3.2-pl-3
Architecture  : x86_64-unknown-linux-gnu--unknown
Compiler flags: mpiifort -g -O2 -fPIC -xSSE4.1 -fp-model source -shared-intel 
PARALLEL version

* Running on    8 nodes in parallel
>> Start of run:  24-APR-2016   0:28:31

                           ***********************       
                           *  WELCOME TO SIESTA  *       
                           ***********************       

reinit: Reading from standard input
************************** Dump of input data file ****************************
#(1) General system descriptors
SystemName            GRP_doping    # Descriptive name of the system
SystemLabel           GRP_doping    # Short name for naming files
%include STRUCT.fdf
%include KPT.fdf
%include BASIS.fdf
#%include TS.fdf # for transiesta calculation
#(4) DFT, Grid, SCF
XC.functional         GGA           # LDA or GGA (default = LDA)
XC.authors            PBE           # CA (Ceperley-Aldr) = PZ
                                    #    (Perdew-Zunger) - LDA - Default
                                    # PW92 (Perdew-Wang-92) - LDA
                                    # PBE (Perdew-Burke-Ernzerhof) - GGA
MeshCutoff            200.000000    Ry      # Default: 50.0 Ry ~ 0.444 Bohr
                                    #         100.0 Ry ~ 0.314 Bohr
MaxSCFIterations      500           # Default: 50
DM.MixingWeight       0.05          # Default: 0.25
DM.NumberPulay        10            # Default: 0
DM.PulayOnFile        F             # SystemLabel.P1, SystemLabel.P2
DM.Tolerance          1.d-4         # Default: 1.d-4
DM.UseSaveDM          .true.        # because of the bug
SCFMustConverge       .true.
NeglNonOverlapInt     F             # Default: F
#(5) Eigenvalue problem: order-N or diagonalization
SolutionMethod        Diagon        # or Transiesta
ElectronicTemperature 300.0 K       # Default: 300.0 K
#(6) Molecular dynamics and relaxations
#MD.TypeOfRun          CG            # Type of dynamics:
#MD.VariableCell       F
#MD.NumCGsteps         0           # 0 for single-point / 100 for gopt
#MD.MaxCGDispl         0.2 Bohr      # Default: 0.2 Bohr
#MD.MaxForceTol        0.02 eV/Ang   # Default: 0.04 eV/Ang
#MD.MaxStressTol       1.0 GPa       # Default: 1.0 GPa
# Geometry Constraints
#%block GeometryConstraints
#	position from 1 to 44
#%endblock GeometryConstraints
BandLinesScale   pi/a
%block BandLines
 1   0.00000000  0.00000000  0.00000000
50   0.00000000  0.07809418  0.00000000
50   0.04509075  0.07809242  0.00000000
20   0.00000000  0.00000000  0.00000000
%endblock BandLines
************************** End of input data file *****************************

reinit: -----------------------------------------------------------------------
reinit: System Name: GRP_doping
reinit: -----------------------------------------------------------------------
reinit: System Label: GRP_doping                                                  
reinit: -----------------------------------------------------------------------

initatom: Reading input for the pseudopotentials and atomic orbitals ----------
 Species number:            1  Label: N Atomic number:           7
 Species number:            2  Label: C Atomic number:           6
Ground state valence configuration:   2s02  2p03
Reading pseudopotential information in formatted form from N.psf

Valence configuration for pseudopotential generation:
2s( 2.00) rc: 1.48
2p( 3.00) rc: 1.48
3d( 0.00) rc: 1.48
4f( 0.00) rc: 1.48
Ground state valence configuration:   2s02  2p02
Reading pseudopotential information in formatted form from C.psf

Valence configuration for pseudopotential generation:
2s( 2.00) rc: 1.54
2p( 2.00) rc: 1.54
3d( 0.00) rc: 1.54
4f( 0.00) rc: 1.54
For N, standard SIESTA heuristics set lmxkb to 3
 (one more than the basis l, including polarization orbitals).
Use PS.lmax or PS.KBprojectors blocks to override.
For C, standard SIESTA heuristics set lmxkb to 3
 (one more than the basis l, including polarization orbitals).
Use PS.lmax or PS.KBprojectors blocks to override.

<basis_specs>
===============================================================================
N                    Z=   7    Mass=  14.010        Charge= 0.17977+309
Lmxo=1 Lmxkb= 3    BasisType=split      Semic=F
L=0  Nsemic=0  Cnfigmx=2
          n=1  nzeta=2  polorb=0
            splnorm:   0.15000    
               vcte:    0.0000    
               rinn:    0.0000    
                rcs:    0.0000      0.0000    
            lambdas:    1.0000      1.0000    
L=1  Nsemic=0  Cnfigmx=2
          n=1  nzeta=2  polorb=1
            splnorm:   0.15000    
               vcte:    0.0000    
               rinn:    0.0000    
                rcs:    0.0000      0.0000    
            lambdas:    1.0000      1.0000    
-------------------------------------------------------------------------------
L=0  Nkbl=1  erefs: 0.17977+309
L=1  Nkbl=1  erefs: 0.17977+309
L=2  Nkbl=1  erefs: 0.17977+309
L=3  Nkbl=1  erefs: 0.17977+309
===============================================================================
</basis_specs>

atom: Called for N                     (Z =   7)

read_vps: Pseudopotential generation method:
read_vps: ATM3      Troullier-Martins                       
Total valence charge:    5.00000

read_vps: Pseudopotential includes a core correction:
read_vps: Pseudo-core for xc-correction

xc_check: Exchange-correlation functional:
xc_check: GGA Perdew, Burke & Ernzerhof 1996
V l=0 = -2*Zval/r beyond r=  1.4606
V l=1 = -2*Zval/r beyond r=  1.4606
V l=2 = -2*Zval/r beyond r=  1.4606
V l=3 = -2*Zval/r beyond r=  1.4606
All V_l potentials equal beyond r=  1.4606
This should be close to max(r_c) in ps generation
All pots = -2*Zval/r beyond r=  1.4606

VLOCAL1: 99.0% of the norm of Vloc inside     20.347 Ry
VLOCAL1: 99.9% of the norm of Vloc inside     46.372 Ry
atom: Maximum radius for 4*pi*r*r*local-pseudopot. charge    1.76189
atom: Maximum radius for r*vlocal+2*Zval:    1.53550
GHOST: No ghost state for L =  0
GHOST: No ghost state for L =  1
GHOST: No ghost state for L =  2
GHOST: No ghost state for L =  3

KBgen: Kleinman-Bylander projectors: 
   l= 0   rc=  1.634559   el= -1.363963   Ekb=  5.296955   kbcos=  0.335621
   l= 1   rc=  1.614250   el= -0.521451   Ekb= -5.259161   kbcos= -0.433408
   l= 2   rc=  1.718383   el=  0.001991   Ekb= -1.271464   kbcos= -0.007566
   l= 3   rc=  1.761893   el=  0.003093   Ekb= -0.494769   kbcos= -0.001015

KBgen: Total number of  Kleinman-Bylander projectors:   16
atom: -------------------------------------------------------------------------

atom: SANKEY-TYPE ORBITALS:
atom: Selected multiple-zeta basis: split     

SPLIT: Orbitals with angular momentum L= 0

SPLIT: Basis orbitals for state 2s

SPLIT: PAO cut-off radius determined from an
SPLIT: energy shift=  0.007350 Ry

   izeta = 1
                 lambda =    1.000000
                     rc =    4.071465
                 energy =   -1.356470
                kinetic =    1.176977
    potential(screened) =   -2.533447
       potential(ionic) =   -8.057990

   izeta = 2
                 rmatch =    2.905100
              splitnorm =    0.150000
                 energy =   -1.158343
                kinetic =    1.813009
    potential(screened) =   -2.971352
       potential(ionic) =   -8.901931

SPLIT: Orbitals with angular momentum L= 1

SPLIT: Basis orbitals for state 2p

SPLIT: PAO cut-off radius determined from an
SPLIT: energy shift=  0.007350 Ry

   izeta = 1
                 lambda =    1.000000
                     rc =    4.972977
                 energy =   -0.513884
                kinetic =    3.441732
    potential(screened) =   -3.955616
       potential(ionic) =   -9.287901

   izeta = 2
                 rmatch =    3.054066
              splitnorm =    0.150000
                 energy =   -0.318226
                kinetic =    5.125348
    potential(screened) =   -5.443573
       potential(ionic) =  -11.380999

POLgen: Perturbative polarization orbital with L=  2

POLgen: Polarization orbital for state 2p

   izeta = 1
                     rc =    4.972977
                 energy =    1.607437
                kinetic =    3.268125
    potential(screened) =   -1.660688
       potential(ionic) =   -5.973652
atom: Total number of Sankey-type orbitals: 13

atm_pop: Valence configuration (for local Pseudopot. screening):
 2s( 2.00)                                                            
 2p( 3.00)                                                            
Vna: chval, zval:    5.00000   5.00000

Vna:  Cut-off radius for the neutral-atom potential:   4.972977
comcore: Pseudo-core radius Rcore=  1.554824

atom: _________________________________________________________________________

<basis_specs>
===============================================================================
C                    Z=   6    Mass=  12.010        Charge= 0.17977+309
Lmxo=1 Lmxkb= 3    BasisType=split      Semic=F
L=0  Nsemic=0  Cnfigmx=2
          n=1  nzeta=2  polorb=0
            splnorm:   0.15000    
               vcte:    0.0000    
               rinn:    0.0000    
                rcs:    0.0000      0.0000    
            lambdas:    1.0000      1.0000    
L=1  Nsemic=0  Cnfigmx=2
          n=1  nzeta=2  polorb=1
            splnorm:   0.15000    
               vcte:    0.0000    
               rinn:    0.0000    
                rcs:    0.0000      0.0000    
            lambdas:    1.0000      1.0000    
-------------------------------------------------------------------------------
L=0  Nkbl=1  erefs: 0.17977+309
L=1  Nkbl=1  erefs: 0.17977+309
L=2  Nkbl=1  erefs: 0.17977+309
L=3  Nkbl=1  erefs: 0.17977+309
===============================================================================
</basis_specs>

atom: Called for C                     (Z =   6)

read_vps: Pseudopotential generation method:
read_vps: ATM3      Troullier-Martins                       
Total valence charge:    4.00000

read_vps: Pseudopotential includes a core correction:
read_vps: Pseudo-core for xc-correction

xc_check: Exchange-correlation functional:
xc_check: GGA Perdew, Burke & Ernzerhof 1996
V l=0 = -2*Zval/r beyond r=  1.5227
V l=1 = -2*Zval/r beyond r=  1.5227
V l=2 = -2*Zval/r beyond r=  1.5227
V l=3 = -2*Zval/r beyond r=  1.5038
All V_l potentials equal beyond r=  1.5227
This should be close to max(r_c) in ps generation
All pots = -2*Zval/r beyond r=  1.5227

VLOCAL1: 99.0% of the norm of Vloc inside     18.722 Ry
VLOCAL1: 99.9% of the norm of Vloc inside     42.668 Ry
atom: Maximum radius for 4*pi*r*r*local-pseudopot. charge    1.83678
atom: Maximum radius for r*vlocal+2*Zval:    1.58088
GHOST: No ghost state for L =  0
GHOST: No ghost state for L =  1
GHOST: No ghost state for L =  2
GHOST: No ghost state for L =  3

KBgen: Kleinman-Bylander projectors: 
   l= 0   rc=  1.704034   el= -1.009801   Ekb=  5.335044   kbcos=  0.316824
   l= 1   rc=  1.704034   el= -0.388707   Ekb= -3.785862   kbcos= -0.366464
   l= 2   rc=  1.791422   el=  0.001971   Ekb= -0.970471   kbcos= -0.009212
   l= 3   rc=  1.859892   el=  0.003065   Ekb= -0.399525   kbcos= -0.001223

KBgen: Total number of  Kleinman-Bylander projectors:   16
atom: -------------------------------------------------------------------------

atom: SANKEY-TYPE ORBITALS:
atom: Selected multiple-zeta basis: split     

SPLIT: Orbitals with angular momentum L= 0

SPLIT: Basis orbitals for state 2s

SPLIT: PAO cut-off radius determined from an
SPLIT: energy shift=  0.007350 Ry

   izeta = 1
                 lambda =    1.000000
                     rc =    4.632753
                 energy =   -1.002270
                kinetic =    0.855760
    potential(screened) =   -1.858031
       potential(ionic) =   -5.417575

   izeta = 2
                 rmatch =    3.431921
              splitnorm =    0.150000
                 energy =   -0.867111
                kinetic =    1.300804
    potential(screened) =   -2.167915
       potential(ionic) =   -5.962684

SPLIT: Orbitals with angular momentum L= 1

SPLIT: Basis orbitals for state 2p

SPLIT: PAO cut-off radius determined from an
SPLIT: energy shift=  0.007350 Ry

   izeta = 1
                 lambda =    1.000000
                     rc =    5.658549
                 energy =   -0.381140
                kinetic =    2.399701
    potential(screened) =   -2.780841
       potential(ionic) =   -6.206085

   izeta = 2
                 rmatch =    3.653288
              splitnorm =    0.150000
                 energy =   -0.249149
                kinetic =    3.542762
    potential(screened) =   -3.791911
       potential(ionic) =   -7.581078

POLgen: Perturbative polarization orbital with L=  2

POLgen: Polarization orbital for state 2p

   izeta = 1
                     rc =    5.658549
                 energy =    1.109913
                kinetic =    2.304789
    potential(screened) =   -1.194876
       potential(ionic) =   -4.013592
atom: Total number of Sankey-type orbitals: 13

atm_pop: Valence configuration (for local Pseudopot. screening):
 2s( 2.00)                                                            
 2p( 2.00)                                                            
Vna: chval, zval:    4.00000   4.00000

Vna:  Cut-off radius for the neutral-atom potential:   5.658549
comcore: Pseudo-core radius Rcore=  1.791422

atom: _________________________________________________________________________

prinput: Basis input ----------------------------------------------------------

PAO.BasisType split     

%block ChemicalSpeciesLabel
    1    7 N                       # Species index, atomic number, species label
    2    6 C                       # Species index, atomic number, species label
%endblock ChemicalSpeciesLabel

%block PAO.Basis                 # Define Basis set
N                     2                    # Species label, number of l-shells
 n=2   0   2                         # n, l, Nzeta 
   4.071      2.905   
   1.000      1.000   
 n=2   1   2 P   1                   # n, l, Nzeta, Polarization, NzetaPol
   4.973      3.054   
   1.000      1.000   
C                     2                    # Species label, number of l-shells
 n=2   0   2                         # n, l, Nzeta 
   4.633      3.432   
   1.000      1.000   
 n=2   1   2 P   1                   # n, l, Nzeta, Polarization, NzetaPol
   5.659      3.653   
   1.000      1.000   
%endblock PAO.Basis

prinput: ----------------------------------------------------------------------

coor:   Atomic-coordinates input format  =     Fractional

siesta: Atomic coordinates (Bohr) and species
siesta:     -2.35420  38.89134   0.00000  1        1
siesta:     -2.35420  41.57980   0.00000  1        2
siesta:      6.95932  30.82560   0.00000  1        3
siesta:      9.28770  29.48119   0.00000  1        4
siesta:     -4.68258  34.85847   0.00000  1        5
siesta:     -4.68258  37.54693   0.00000  1        6
siesta:     -2.35420   9.31683   0.00000  1        7
siesta:     -0.02582  13.34970   0.00000  1        8
siesta:      2.30256  17.38257   0.00000  1        9
siesta:      4.63094  21.41544   0.00000  1       10
siesta:      6.95932  25.44831   0.00000  1       11
siesta:     -4.68258  10.66124   0.00000  1       12
siesta:     -2.35420  14.69411   0.00000  1       13
siesta:     -0.02582  18.72698   0.00000  1       14
siesta:      2.30256  22.75985   0.00000  1       15
siesta:    -11.66772  22.75985   0.00000  1       16
siesta:    -11.66772  25.44831   0.00000  1       17
siesta:     -9.33934  26.79272   0.00000  1       18
siesta:     -9.33934  29.48119   0.00000  1       19
siesta:      4.63094  26.79272   0.00000  1       20
siesta:     -7.01096  30.82560   0.00000  1       21
siesta:     -7.01096  33.51406   0.00000  1       22
siesta:     -0.02582  42.92421   0.00000  1       23
siesta:     -0.02582  45.61267   0.00000  1       24
siesta:     -0.02582   2.59549   0.00000  2       25
siesta:     -0.02582   5.28395   0.00000  2       26
siesta:      2.30256  38.89134   0.00000  2       27
siesta:      2.30256  41.57980   0.00000  2       28
siesta:      4.63094  34.85847   0.00000  2       29
siesta:      4.63094  37.54693   0.00000  2       30
siesta:      6.95932  33.51406   0.00000  2       31
siesta:      9.28770  26.79272   0.00000  2       32
siesta:      2.30256   6.62836   0.00000  2       33
siesta:      2.30256   9.31683   0.00000  2       34
siesta:      4.63094  10.66124   0.00000  2       35
siesta:      4.63094  13.34970   0.00000  2       36
siesta:      6.95932  14.69411   0.00000  2       37
siesta:      6.95932  17.38257   0.00000  2       38
siesta:      9.28770  18.72698   0.00000  2       39
siesta:      9.28770  21.41544   0.00000  2       40
siesta:     11.61608  22.75985   0.00000  2       41
siesta:     11.61608  25.44831   0.00000  2       42
siesta:     -2.35420   6.62836   0.00000  2       43
siesta:     -0.02582  10.66124   0.00000  2       44
siesta:      2.30256  14.69411   0.00000  2       45
siesta:      4.63094  18.72698   0.00000  2       46
siesta:      6.95932  22.75985   0.00000  2       47
siesta:     -4.68258  13.34970   0.00000  2       48
siesta:     -2.35420  17.38257   0.00000  2       49
siesta:     -0.02582  21.41544   0.00000  2       50
siesta:      2.30256  25.44831   0.00000  2       51
siesta:     -7.01096  14.69411   0.00000  2       52
siesta:     -7.01096  17.38257   0.00000  2       53
siesta:     -4.68258  18.72698   0.00000  2       54
siesta:     -4.68258  21.41544   0.00000  2       55
siesta:     -2.35420  22.75985   0.00000  2       56
siesta:     -2.35420  25.44831   0.00000  2       57
siesta:     -9.33934  18.72698   0.00000  2       58
siesta:     -9.33934  21.41544   0.00000  2       59
siesta:     -7.01096  22.75985   0.00000  2       60
siesta:     -7.01096  25.44831   0.00000  2       61
siesta:      4.63094  29.48119   0.00000  2       62
siesta:     -0.02582  26.79272   0.00000  2       63
siesta:     -0.02582  29.48119   0.00000  2       64
siesta:     -4.68258  26.79272   0.00000  2       65
siesta:     -4.68258  29.48119   0.00000  2       66
siesta:      2.30256  30.82560   0.00000  2       67
siesta:      2.30256  33.51406   0.00000  2       68
siesta:     -2.35420  30.82560   0.00000  2       69
siesta:     -2.35420  33.51406   0.00000  2       70
siesta:     -0.02582  34.85847   0.00000  2       71
siesta:     -0.02582  37.54693   0.00000  2       72

siesta: System type = slab      

initatomlists: Number of atoms, orbitals, and projectors:     72   936  1152

siesta: ******************** Simulation parameters ****************************
siesta:
siesta: The following are some of the parameters of the simulation.
siesta: A complete list of the parameters used, including default values,
siesta: can be found in file out.fdf
siesta:
redata: Non-Collinear-spin run           =     F
redata: SpinPolarized (Up/Down) run      =     F
redata: Number of spin components        =     1
redata: Long output                      =     F
redata: Number of Atomic Species         =        2
redata: Charge density info will appear in .RHO file
redata: Write Mulliken Pop.              =     NO
redata: Mesh Cutoff                      =   200.0000  Ry
redata: Net charge of the system         =     0.0000 |e|
redata: Max. number of SCF Iter          =      500
redata: SCF convergence failure will abort job
redata: Performing Pulay mixing using    =    10 iterations
redata: Mix DM in first SCF step ?       =     F
redata: Write Pulay info on disk?        =     F
redata: Discard 1st Pulay DM after  kick =     F
redata: New DM Mixing Weight             =     0.0500
redata: New DM Occupancy tolerance       = 0.000000000001
redata: No kicks to SCF
redata: DM Mixing Weight for Kicks       =     0.5000
redata: DM Tolerance for SCF             =     0.000100
redata: Require Energy convergence for SCF =     F
redata: DM Energy tolerance for SCF      =     0.000100 eV
redata: Require Harris convergence for SCF =     F
redata: DM Harris energy tolerance for SCF =     0.000100 eV
redata: Using Saved Data (generic)   =     F
redata: Use continuation files for DM    =     T
redata: Neglect nonoverlap interactions  =     F
redata: Method of Calculation            =     Diagonalization
redata: Divide and Conquer               =     T
redata: Electronic Temperature           =     0.0019  Ry
redata: Fix the spin of the system       =     F
redata: Dynamics option                  =     Verlet MD run
redata: Initial MD time step             =        1
redata:   Final MD time step             =        1
redata: Length of MD time step           =     1.0000  fs
redata: Initial Temperature of MD run    =     0.0000  K
redata: Perform a MD quench              =     F
redata: ***********************************************************************
Total number of electrons:   312.000000
Total ionic charge:   312.000000

* ProcessorY, Blocksize:    2  24

k-point displ. along   1 input, could be:     0.50    0.00
k-point displ. along   2 input, could be:     0.50    0.00
 Kpoints in:          231 . Kpoints trimmed:          231

siesta: k-grid: Number of k-points =   231
siesta: k-grid: Cutoff (effective) =     5.000 Ang
siesta: k-grid: Supercell and displacements
siesta: k-grid:   21   0   0      0.500
siesta: k-grid:    0  21   0      0.500
siesta: k-grid:    0   0   1      0.000
Naive supercell factors:     2    2    2

superc: Internal auxiliary supercell:     2 x     2 x     2  =       8
superc: Number of atoms, orbitals, and projectors:    576   7488   9216

* Maximum dynamic memory allocated =     4 MB

siesta:                 ==============================
                            Begin MD step =      1
                        ==============================

superc: Internal auxiliary supercell:     2 x     2 x     2  =       8
superc: Number of atoms, orbitals, and projectors:    576   7488   9216

outcell: Unit cell vectors (Ang):
       12.804619    7.392750    0.000000
        0.000000   14.785500    0.000000
        0.000000    0.000000   10.000000

outcell: Cell vector modules (Ang)   :   14.785500   14.785500   10.000000
outcell: Cell angles (23,13,12) (deg):     90.0000     90.0000     60.0000
outcell: Cell volume (Ang**3)        :   1893.2269
New_DM. Step:     1
Initializing Density Matrix...

InitMesh: MESH =   120 x   120 x    90 =     1296000
InitMesh: Mesh cutoff (required, used) =   200.000   223.865 Ry

* Maximum dynamic memory allocated =   181 MB

stepf: Fermi-Dirac step function

siesta: Program's energy decomposition (eV):
siesta: Ebs     =     -6367.271546
siesta: Eions   =     22260.935331
siesta: Ena     =      4978.971795
siesta: Ekin    =      8392.322035
siesta: Enl     =       -90.350331
siesta: DEna    =        -0.000015
siesta: DUscf   =         0.000000
siesta: DUext   =         0.000000
siesta: Exc     =     -4784.015933
siesta: eta*DQ  =         0.000000
siesta: Emadel  =         0.000000
siesta: Emeta   =         0.000000
siesta: Emolmec =         0.000000
siesta: Ekinion =         0.000000
siesta: Eharris =    -13334.169032
siesta: Etot    =    -13764.007779
siesta: FreeEng =    -13764.007779

siesta: iscf   Eharris(eV)      E_KS(eV)   FreeEng(eV)   dDmax  Ef(eV)
siesta:    1   -13334.1690   -13764.0078   -13764.0078  5.6808 -6.8773
timer: Routine,Calls,Time,% = IterSCF        1    4125.565  99.72
elaps: Routine,Calls,Wall,% = IterSCF        1     516.279  99.72
siesta:    2   -16641.4003   -12777.0834   -12777.1186  9.3618 -3.5172
siesta:    3   -13281.1237   -13504.1063   -13504.1576  1.8269 -3.9650
siesta:    4   -13238.5414   -13417.1425   -13417.1890  1.2012 -3.5122
siesta:    5   -13216.3008   -13350.5123   -13350.5267  0.9401 -3.4215
siesta:    6   -13202.7290   -13312.3829   -13312.4292  0.8998 -3.2884
siesta:    7   -13189.8512   -13283.4536   -13283.4938  0.6651 -3.4862
siesta:    8   -13186.7979   -13265.3755   -13265.3765  0.6058 -3.5708
siesta:    9   -13185.7503   -13243.1191   -13243.1375  0.4541 -3.7336
siesta:   10   -13185.2916   -13234.8687   -13234.9162  0.4658 -3.6441
siesta:   11   -13185.5659   -13211.0108   -13211.0705  0.3308 -3.7593
siesta:   12   -13185.0885   -13185.2599   -13185.2928  0.3492 -3.5555
siesta:   13   -13184.9952   -13176.4806   -13176.5178  0.2881 -3.5147
siesta:   14   -13184.6776   -13178.0382   -13178.0770  0.2473 -3.5762
siesta:   15   -13184.4382   -13179.7824   -13179.8292  0.1734 -3.6380
siesta:   16   -13184.3227   -13181.7673   -13181.8189  0.1645 -3.6407
siesta:   17   -13184.2134   -13181.3713   -13181.4150  0.0976 -3.7291
siesta:   18   -13184.1941   -13181.4515   -13181.5076  0.0584 -3.6970
siesta:   19   -13184.1825   -13180.9786   -13181.0321  0.0639 -3.7045
siesta:   20   -13184.1711   -13181.8679   -13181.9230  0.0387 -3.6877
siesta:   21   -13184.1648   -13182.7499   -13182.8035  0.0363 -3.6792
siesta:   22   -13184.1582   -13183.2921   -13183.3440  0.0331 -3.6847
siesta:   23   -13184.1551   -13183.2409   -13183.2910  0.0193 -3.6879
siesta:   24   -13184.1559   -13183.5827   -13183.6343  0.0211 -3.6822
siesta:   25   -13184.1548   -13184.0219   -13184.0727  0.0148 -3.6798
siesta:   26   -13184.1537   -13184.2794   -13184.3303  0.0126 -3.6837
siesta:   27   -13184.1538   -13184.4351   -13184.4868  0.0081 -3.6835
siesta:   28   -13184.1541   -13184.3313   -13184.3825  0.0050 -3.6837
siesta:   29   -13184.1538   -13184.3392   -13184.3901  0.0039 -3.6831
siesta:   30   -13184.1538   -13184.3490   -13184.3999  0.0026 -3.6823
siesta:   31   -13184.1538   -13184.2811   -13184.3319  0.0020 -3.6821
siesta:   32   -13184.1538   -13184.1960   -13184.2468  0.0014 -3.6822
siesta:   33   -13184.1538   -13184.1847   -13184.2355  0.0011 -3.6825
siesta:   34   -13184.1538   -13184.1891   -13184.2400  0.0006 -3.6828
siesta:   35   -13184.1538   -13184.1847   -13184.2355  0.0003 -3.6828
siesta:   36   -13184.1538   -13184.1809   -13184.2317  0.0002 -3.6826
siesta:   37   -13184.1538   -13184.1816   -13184.2324  0.0001 -3.6826
siesta:   38   -13184.1538   -13184.1758   -13184.2266  0.0001 -3.6826
siesta:   39   -13184.1538   -13184.1643   -13184.2151  0.0001 -3.6826

siesta: E_KS(eV) =           -13184.1586

siesta: E_KS - E_eggbox =    -13184.1586

siesta: Atomic forces (eV/Ang):
----------------------------------------
   Tot    0.088353    0.200744    0.000000
----------------------------------------
   Max  789.860353
   Res  183.977170    sqrt( Sum f_i^2 / 3N )
----------------------------------------
   Max  789.860353    constrained

Stress-tensor-Voigt (kbar):     -651.65    -3254.31       -0.01       17.50        0.00        0.00
(Free)E + p*V (eV/cell)   -11645.7153
Target enthalpy (eV/cell)   -13184.2094

siesta: Stress tensor (static) (eV/Ang**3):
        -0.406726    0.010924    0.000000
         0.010924   -2.031157    0.000000
         0.000000    0.000000   -0.000009

siesta: Pressure (static):       1301.99183059  kBar

siesta: Stress tensor (total) (eV/Ang**3):
        -0.406726    0.010924    0.000000
         0.010924   -2.031157    0.000000
         0.000000    0.000000   -0.000009

siesta: Pressure (total):       1301.99183059  kBar

siesta: Temp_ion =       0.000 K

* Maximum dynamic memory allocated =   198 MB
Computing bands...

siesta: Program's energy decomposition (eV):
siesta: Ebs     =     -5203.916924
siesta: Eions   =     22260.935331
siesta: Ena     =      4978.971795
siesta: Ekin    =     11527.658494
siesta: Enl     =     -1810.233441
siesta: DEna    =      -769.556601
siesta: DUscf   =       103.144734
siesta: DUext   =         0.000000
siesta: Exc     =     -4953.208266
siesta: eta*DQ  =         0.000000
siesta: Emadel  =         0.000000
siesta: Emeta   =         0.000000
siesta: Emolmec =         0.000000
siesta: Ekinion =         0.000000
siesta: Eharris =    -13184.153799
siesta: Etot    =    -13184.158615
siesta: FreeEng =    -13184.209405

siesta: Final energy (eV):
siesta:  Band Struct. =   -5203.916924
siesta:       Kinetic =   11527.658494
siesta:       Hartree =   37163.382315
siesta:    Ext. field =       0.000000
siesta:   Exch.-corr. =   -4953.208266
siesta:  Ion-electron =  -85418.756033
siesta:       Ion-ion =   28496.764874
siesta:       Ekinion =       0.000000
siesta:         Total =  -13184.158615

siesta: Atomic forces (eV/Ang):
siesta:      1   12.261230  109.878527    0.000000
siesta:      2  -26.358162 -752.539510    0.000000
siesta:      3   -1.555626    0.070191    0.000000
siesta:      4   -0.175703   -2.069796    0.000000
siesta:      5  -22.257435   -4.194957    0.000000
siesta:      6  -25.304104 -750.953107    0.000000
siesta:      7    8.188940 -118.309644    0.000000
siesta:      8    6.229656 -119.171597    0.000000
siesta:      9   42.401984  -15.486930    0.000000
siesta:     10    0.048235    0.310304    0.000000
siesta:     11    0.074407   -2.033073    0.000000
siesta:     12  -30.573671  760.909629    0.000000
siesta:     13   -3.183813  777.878562    0.000000
siesta:     14  -15.900970  789.860353    0.000000
siesta:     15    2.098338    0.701514    0.000000
siesta:     16    1.628812    3.416605    0.000000
siesta:     17   -0.028677   -2.184590    0.000000
siesta:     18    2.944851   -0.240827    0.000000
siesta:     19   -1.258875    0.371922    0.000000
siesta:     20   -1.282745   -0.629076    0.000000
siesta:     21    2.164027   -0.617617    0.000000
siesta:     22   -0.428458   -3.022063    0.000000
siesta:     23    4.747399  111.566006    0.000000
siesta:     24   -4.731099 -734.743511    0.000000
siesta:     25    1.988353  549.301906    0.000000
siesta:     26   -2.679139 -129.581477    0.000000
siesta:     27   -1.329275  122.742792    0.000000
siesta:     28    4.457497 -556.203160    0.000000
siesta:     29   25.101792    5.186881    0.000000
siesta:     30   34.433868 -549.031291    0.000000
siesta:     31   -1.340817   -1.190872    0.000000
siesta:     32   -0.131147    4.739908    0.000000
siesta:     33   15.864930  546.350340    0.000000
siesta:     34   -1.309456 -128.694819    0.000000
siesta:     35   32.478021  547.967666    0.000000
siesta:     36   26.571824   -5.351978    0.000000
siesta:     37   -2.762047   -2.117092    0.000000
siesta:     38    1.076681    0.410916    0.000000
siesta:     39   -1.035731   -0.245782    0.000000
siesta:     40   -0.033188   -1.928462    0.000000
siesta:     41    0.262830    7.079560    0.000000
siesta:     42   -0.614627   -5.320342    0.000000
siesta:     43  -28.241299  547.293609    0.000000
siesta:     44  -12.633332  547.515202    0.000000
siesta:     45   12.425082  569.522413    0.000000
siesta:     46   -1.584871    1.959563    0.000000
siesta:     47   -0.556120    0.964381    0.000000
siesta:     48  -30.224481   -1.554803    0.000000
siesta:     49  -22.886099   -1.442912    0.000000
siesta:     50   -0.256642   -2.056411    0.000000
siesta:     51    1.311058    0.721982    0.000000
siesta:     52    3.194695   -1.609177    0.000000
siesta:     53   -2.016297   -0.157846    0.000000
siesta:     54    1.591230    2.045964    0.000000
siesta:     55   -0.391097    0.148145    0.000000
siesta:     56    0.327372   -0.009839    0.000000
siesta:     57   -1.032470   -0.256124    0.000000
siesta:     58    0.021607    0.305058    0.000000
siesta:     59   -1.532380    0.224043    0.000000
siesta:     60    0.077835    0.515514    0.000000
siesta:     61   -0.865050    0.358939    0.000000
siesta:     62    0.259592   -1.622707    0.000000
siesta:     63    1.594455   -0.465806    0.000000
siesta:     64   -1.719564 -563.820837    0.000000
siesta:     65   -0.741675   -0.322911    0.000000
siesta:     66    0.196631   -1.009289    0.000000
siesta:     67   23.159397    6.667139    0.000000
siesta:     68   24.471132 -557.925771    0.000000
siesta:     69  -24.137530    6.083269    0.000000
siesta:     70   -8.914774 -573.564408    0.000000
siesta:     71   -2.403762  124.817194    0.000000
siesta:     72   -9.153196 -556.004837    0.000000
siesta: ----------------------------------------
siesta:    Tot    0.088353    0.200744    0.000000

siesta: Stress tensor (static) (eV/Ang**3):
siesta:    -0.406726    0.010924    0.000000
siesta:     0.010924   -2.031157    0.000000
siesta:     0.000000    0.000000   -0.000009

siesta: Cell volume =       1893.226884 Ang**3

siesta: Pressure (static):
siesta:                Solid            Molecule  Units
siesta:           0.00885058          0.14500688  Ry/Bohr**3
siesta:           0.81263060         13.31403840  eV/Ang**3
siesta:        1301.99183059      21331.67180817  kBar
(Free)E+ p_basis*V_orbitals  =      -13156.902914
(Free)Eharris+ p_basis*V_orbitals  =      -13156.892410

siesta: Electric dipole (a.u.)  =    0.000000    0.000000    0.000000
siesta: Electric dipole (Debye) =    0.000000    0.000000    0.000000

* Maximum dynamic memory allocated : Node    0 =   198 MB
* Maximum dynamic memory allocated : Node    1 =    70 MB
* Maximum dynamic memory allocated : Node    2 =    73 MB
* Maximum dynamic memory allocated : Node    3 =   189 MB
* Maximum dynamic memory allocated : Node    4 =   184 MB
* Maximum dynamic memory allocated : Node    5 =    70 MB
* Maximum dynamic memory allocated : Node    6 =    72 MB
* Maximum dynamic memory allocated : Node    7 =   169 MB

* Maximum memory occured during matrixMtoO                    

timer: CPU execution times:
timer:  Routine       Calls   Time/call    Tot.time        %
timer:  siesta            1  159346.042  159346.042   100.00
timer:  Setup             1       3.070       3.070     0.00
timer:  bands             3     268.332     804.996     0.51
timer:  writewave         1       0.019       0.019     0.00
timer:  KSV_init          1       0.000       0.000     0.00
timer:  IterMD            1  158532.107  158532.107    99.49
timer:  hsparse           1       0.229       0.229     0.00
timer:  overlap           1       7.707       7.707     0.00
timer:  IterSCF          39    4060.672  158366.189    99.39
timer:  kinefsm           2       3.951       7.901     0.00
timer:  nlefsm            2      18.377      36.753     0.02
timer:  DHSCF            40      83.584    3343.362     2.10
timer:  DHSCF1            1       0.758       0.758     0.00
timer:  DHSCF2            1      32.783      32.783     0.02
timer:  REORD           322       0.010       3.220     0.00
timer:  POISON           41       2.239      91.786     0.06
timer:  DHSCF3           40      81.971    3278.853     2.06
timer:  rhoofd           40      16.221     648.837     0.41
timer:  cellXC           40       3.477     139.063     0.09
timer:  vmat             40      39.009    1560.361     0.98
timer:  MolMec            2       0.000       0.000     0.00
timer:  diagon           39    3975.886  155059.550    97.31
timer:  c-eigval       9130       6.665   60850.968    38.19
timer:  c-buildHS      9130       0.113    1027.778     0.64
timer:  cdiag         18139       6.861  124452.914    78.10
timer:  cdiag1        18139       0.425    7716.061     4.84
timer:  cdiag2        18139       1.906   34581.706    21.70
timer:  cdiag3        18139       3.947   71589.836    44.93
timer:  cdiag4        18139       0.204    3698.129     2.32
timer:  c-eigvec       9009       7.234   65174.460    40.90
timer:  c-buildD       9009       3.307   29788.756    18.69
timer:  DHSCF4            1      28.865      28.865     0.02
timer:  dfscf             1      27.102      27.102     0.02
timer:  overfsm           1       0.398       0.398     0.00
timer:  optical           1       5.119       5.119     0.00
  

elaps: ELAPSED times:
elaps:  Routine       Calls   Time/call    Tot.time        %
elaps:  siesta            1   19939.256   19939.256   100.00
elaps:  Setup             1       0.383       0.383     0.00
elaps:  bands             3      33.593     100.780     0.51
elaps:  writewave         1       0.002       0.002     0.00
elaps:  KSV_init          1       0.000       0.000     0.00
elaps:  IterMD            1   19837.418   19837.418    99.49
elaps:  hsparse           1       0.028       0.028     0.00
elaps:  overlap           1       0.972       0.972     0.00
elaps:  IterSCF          39     508.120   19816.665    99.39
elaps:  kinefsm           2       0.494       0.988     0.00
elaps:  nlefsm            2       2.280       4.561     0.02
elaps:  DHSCF            40      10.556     422.228     2.12
elaps:  DHSCF1            1       0.098       0.098     0.00
elaps:  DHSCF2            1       4.099       4.099     0.02
elaps:  REORD           322       0.001       0.430     0.00
elaps:  POISON           41       0.280      11.480     0.06
elaps:  DHSCF3           40      10.255     410.184     2.06
elaps:  rhoofd           40       4.535     181.389     0.91
elaps:  cellXC           40       0.434      17.364     0.09
elaps:  vmat             40       4.880     195.186     0.98
elaps:  MolMec            2       0.000       0.000     0.00
elaps:  diagon           39     497.504   19402.669    97.31
elaps:  c-eigval       9130       0.834    7613.629    38.18
elaps:  c-buildHS      9130       0.015     138.489     0.69
elaps:  cdiag         18139       0.862   15640.118    78.44
elaps:  cdiag1        18139       0.053     961.693     4.82
elaps:  cdiag2        18139       0.239    4327.295    21.70
elaps:  cdiag3        18139       0.494    8969.507    44.98
elaps:  cdiag4        18139       0.026     467.203     2.34
elaps:  c-eigvec       9009       0.917    8259.472    41.42
elaps:  c-buildD       9009       0.402    3623.145    18.17
elaps:  DHSCF4            1       7.557       7.557     0.04
elaps:  dfscf             1       7.179       7.179     0.04
elaps:  overfsm           1       0.048       0.048     0.00
elaps:  optical           1       0.000       0.000     0.00
  
>> End of run:  24-APR-2016   6:00:50
