Siesta Version:                                        siesta-3.2-pl-3
Architecture  : x86_64-unknown-linux-gnu--unknown
Compiler flags: mpiifort -g -O2 -fPIC -xSSE4.1 -fp-model source -shared-intel 
PARALLEL version

* Running on   12 nodes in parallel
>> Start of run:   6-APR-2016  14:23:26

                           ***********************       
                           *  WELCOME TO SIESTA  *       
                           ***********************       

reinit: Reading from standard input
************************** Dump of input data file ****************************
#(1) General system descriptors
SystemName            GRP_doping    # Descriptive name of the system
SystemLabel           GRP_doping    # Short name for naming files
%include STRUCT.fdf
%include KPT.fdf
%include BASIS.fdf
#%include TS.fdf # for transiesta calculation
#(4) DFT, Grid, SCF
XC.functional         GGA           # LDA or GGA (default = LDA)
XC.authors            PBE           # CA (Ceperley-Aldr) = PZ
                                    #    (Perdew-Zunger) - LDA - Default
                                    # PW92 (Perdew-Wang-92) - LDA
                                    # PBE (Perdew-Burke-Ernzerhof) - GGA
MeshCutoff            200.000000    Ry      # Default: 50.0 Ry ~ 0.444 Bohr
                                    #         100.0 Ry ~ 0.314 Bohr
MaxSCFIterations      500           # Default: 50
DM.MixingWeight       0.05          # Default: 0.25
DM.NumberPulay        10            # Default: 0
DM.PulayOnFile        F             # SystemLabel.P1, SystemLabel.P2
DM.Tolerance          1.d-4         # Default: 1.d-4
DM.UseSaveDM          .true.        # because of the bug
SCFMustConverge       .true.
NeglNonOverlapInt     F             # Default: F
Diag.ParallelOverK    .true.
#(5) Eigenvalue problem: order-N or diagonalization
SolutionMethod        Diagon        # or Transiesta
ElectronicTemperature 300.0 K       # Default: 300.0 K
#(6) Molecular dynamics and relaxations
#MD.TypeOfRun          CG            # Type of dynamics:
#MD.VariableCell       F
#MD.NumCGsteps         0           # 0 for single-point / 100 for gopt
#MD.MaxCGDispl         0.2 Bohr      # Default: 0.2 Bohr
#MD.MaxForceTol        0.02 eV/Ang   # Default: 0.04 eV/Ang
#MD.MaxStressTol       1.0 GPa       # Default: 1.0 GPa
************************** End of input data file *****************************

reinit: -----------------------------------------------------------------------
reinit: System Name: GRP_doping
reinit: -----------------------------------------------------------------------
reinit: System Label: GRP_doping                                                  
reinit: -----------------------------------------------------------------------

initatom: Reading input for the pseudopotentials and atomic orbitals ----------
 Species number:            1  Label: C Atomic number:           6
 Species number:            2  Label: B Atomic number:           5
Ground state valence configuration:   2s02  2p02
Reading pseudopotential information in formatted form from C.psf

Valence configuration for pseudopotential generation:
2s( 2.00) rc: 1.54
2p( 2.00) rc: 1.54
3d( 0.00) rc: 1.54
4f( 0.00) rc: 1.54
Ground state valence configuration:   2s02  2p01
Reading pseudopotential information in formatted form from B.psf

Valence configuration for pseudopotential generation:
2s( 2.00) rc: 1.74
2p( 1.00) rc: 1.74
3d( 0.00) rc: 1.74
4f( 0.00) rc: 1.74
For C, standard SIESTA heuristics set lmxkb to 3
 (one more than the basis l, including polarization orbitals).
Use PS.lmax or PS.KBprojectors blocks to override.
For B, standard SIESTA heuristics set lmxkb to 3
 (one more than the basis l, including polarization orbitals).
Use PS.lmax or PS.KBprojectors blocks to override.

<basis_specs>
===============================================================================
C                    Z=   6    Mass=  12.010        Charge= 0.17977+309
Lmxo=1 Lmxkb= 3    BasisType=split      Semic=F
L=0  Nsemic=0  Cnfigmx=2
          n=1  nzeta=2  polorb=0
            splnorm:   0.15000    
               vcte:    0.0000    
               rinn:    0.0000    
                rcs:    0.0000      0.0000    
            lambdas:    1.0000      1.0000    
L=1  Nsemic=0  Cnfigmx=2
          n=1  nzeta=2  polorb=1
            splnorm:   0.15000    
               vcte:    0.0000    
               rinn:    0.0000    
                rcs:    0.0000      0.0000    
            lambdas:    1.0000      1.0000    
-------------------------------------------------------------------------------
L=0  Nkbl=1  erefs: 0.17977+309
L=1  Nkbl=1  erefs: 0.17977+309
L=2  Nkbl=1  erefs: 0.17977+309
L=3  Nkbl=1  erefs: 0.17977+309
===============================================================================
</basis_specs>

atom: Called for C                     (Z =   6)

read_vps: Pseudopotential generation method:
read_vps: ATM3      Troullier-Martins                       
Total valence charge:    4.00000

read_vps: Pseudopotential includes a core correction:
read_vps: Pseudo-core for xc-correction

xc_check: Exchange-correlation functional:
xc_check: GGA Perdew, Burke & Ernzerhof 1996
V l=0 = -2*Zval/r beyond r=  1.5227
V l=1 = -2*Zval/r beyond r=  1.5227
V l=2 = -2*Zval/r beyond r=  1.5227
V l=3 = -2*Zval/r beyond r=  1.5038
All V_l potentials equal beyond r=  1.5227
This should be close to max(r_c) in ps generation
All pots = -2*Zval/r beyond r=  1.5227

VLOCAL1: 99.0% of the norm of Vloc inside     18.722 Ry
VLOCAL1: 99.9% of the norm of Vloc inside     42.668 Ry
atom: Maximum radius for 4*pi*r*r*local-pseudopot. charge    1.83678
atom: Maximum radius for r*vlocal+2*Zval:    1.58088
GHOST: No ghost state for L =  0
GHOST: No ghost state for L =  1
GHOST: No ghost state for L =  2
GHOST: No ghost state for L =  3

KBgen: Kleinman-Bylander projectors: 
   l= 0   rc=  1.704034   el= -1.009801   Ekb=  5.335044   kbcos=  0.316824
   l= 1   rc=  1.704034   el= -0.388707   Ekb= -3.785862   kbcos= -0.366464
   l= 2   rc=  1.791422   el=  0.001971   Ekb= -0.970471   kbcos= -0.009212
   l= 3   rc=  1.859892   el=  0.003065   Ekb= -0.399525   kbcos= -0.001223

KBgen: Total number of  Kleinman-Bylander projectors:   16
atom: -------------------------------------------------------------------------

atom: SANKEY-TYPE ORBITALS:
atom: Selected multiple-zeta basis: split     

SPLIT: Orbitals with angular momentum L= 0

SPLIT: Basis orbitals for state 2s

SPLIT: PAO cut-off radius determined from an
SPLIT: energy shift=  0.007350 Ry

   izeta = 1
                 lambda =    1.000000
                     rc =    4.632753
                 energy =   -1.002270
                kinetic =    0.855760
    potential(screened) =   -1.858031
       potential(ionic) =   -5.417575

   izeta = 2
                 rmatch =    3.431921
              splitnorm =    0.150000
                 energy =   -0.867111
                kinetic =    1.300804
    potential(screened) =   -2.167915
       potential(ionic) =   -5.962684

SPLIT: Orbitals with angular momentum L= 1

SPLIT: Basis orbitals for state 2p

SPLIT: PAO cut-off radius determined from an
SPLIT: energy shift=  0.007350 Ry

   izeta = 1
                 lambda =    1.000000
                     rc =    5.658549
                 energy =   -0.381140
                kinetic =    2.399701
    potential(screened) =   -2.780841
       potential(ionic) =   -6.206085

   izeta = 2
                 rmatch =    3.653288
              splitnorm =    0.150000
                 energy =   -0.249149
                kinetic =    3.542762
    potential(screened) =   -3.791911
       potential(ionic) =   -7.581078

POLgen: Perturbative polarization orbital with L=  2

POLgen: Polarization orbital for state 2p

   izeta = 1
                     rc =    5.658549
                 energy =    1.109913
                kinetic =    2.304789
    potential(screened) =   -1.194876
       potential(ionic) =   -4.013592
atom: Total number of Sankey-type orbitals: 13

atm_pop: Valence configuration (for local Pseudopot. screening):
 2s( 2.00)                                                            
 2p( 2.00)                                                            
Vna: chval, zval:    4.00000   4.00000

Vna:  Cut-off radius for the neutral-atom potential:   5.658549
comcore: Pseudo-core radius Rcore=  1.791422

atom: _________________________________________________________________________

<basis_specs>
===============================================================================
B                    Z=   5    Mass=  10.810        Charge= 0.17977+309
Lmxo=1 Lmxkb= 3    BasisType=split      Semic=F
L=0  Nsemic=0  Cnfigmx=2
          n=1  nzeta=2  polorb=0
            splnorm:   0.15000    
               vcte:    0.0000    
               rinn:    0.0000    
                rcs:    0.0000      0.0000    
            lambdas:    1.0000      1.0000    
L=1  Nsemic=0  Cnfigmx=2
          n=1  nzeta=2  polorb=1
            splnorm:   0.15000    
               vcte:    0.0000    
               rinn:    0.0000    
                rcs:    0.0000      0.0000    
            lambdas:    1.0000      1.0000    
-------------------------------------------------------------------------------
L=0  Nkbl=1  erefs: 0.17977+309
L=1  Nkbl=1  erefs: 0.17977+309
L=2  Nkbl=1  erefs: 0.17977+309
L=3  Nkbl=1  erefs: 0.17977+309
===============================================================================
</basis_specs>

atom: Called for B                     (Z =   5)

read_vps: Pseudopotential generation method:
read_vps: ATM3      Troullier-Martins                       
Total valence charge:    3.00000

read_vps: Pseudopotential includes a core correction:
read_vps: Pseudo-core for xc-correction

xc_check: Exchange-correlation functional:
xc_check: GGA Perdew, Burke & Ernzerhof 1996
V l=0 = -2*Zval/r beyond r=  1.7165
V l=1 = -2*Zval/r beyond r=  1.7165
V l=2 = -2*Zval/r beyond r=  1.7165
V l=3 = -2*Zval/r beyond r=  1.6951
All V_l potentials equal beyond r=  1.7165
This should be close to max(r_c) in ps generation
All pots = -2*Zval/r beyond r=  1.7165

VLOCAL1: 99.0% of the norm of Vloc inside     14.733 Ry
VLOCAL1: 99.9% of the norm of Vloc inside     33.577 Ry
atom: Maximum radius for 4*pi*r*r*local-pseudopot. charge    2.04484
atom: Maximum radius for r*vlocal+2*Zval:    1.75994
GHOST: No ghost state for L =  0
GHOST: No ghost state for L =  1
GHOST: No ghost state for L =  2
GHOST: No ghost state for L =  3

KBgen: Kleinman-Bylander projectors: 
   l= 0   rc=  1.897051   el= -0.693730   Ekb=  4.595746   kbcos=  0.286105
   l= 1   rc=  1.920920   el= -0.265236   Ekb= -2.350715   kbcos= -0.315747
   l= 2   rc=  2.044840   el=  0.002055   Ekb= -0.690767   kbcos= -0.013822
   l= 3   rc=  2.149707   el=  0.003188   Ekb= -0.315358   kbcos= -0.002055

KBgen: Total number of  Kleinman-Bylander projectors:   16
atom: -------------------------------------------------------------------------

atom: SANKEY-TYPE ORBITALS:
atom: Selected multiple-zeta basis: split     

SPLIT: Orbitals with angular momentum L= 0

SPLIT: Basis orbitals for state 2s

SPLIT: PAO cut-off radius determined from an
SPLIT: energy shift=  0.007350 Ry

   izeta = 1
                 lambda =    1.000000
                     rc =    5.422032
                 energy =   -0.686029
                kinetic =    0.576707
    potential(screened) =   -1.262736
       potential(ionic) =   -3.271094

   izeta = 2
                 rmatch =    4.222573
              splitnorm =    0.150000
                 energy =   -0.602132
                kinetic =    0.858975
    potential(screened) =   -1.461107
       potential(ionic) =   -3.582536

SPLIT: Orbitals with angular momentum L= 1

SPLIT: Basis orbitals for state 2p

SPLIT: PAO cut-off radius determined from an
SPLIT: energy shift=  0.007350 Ry

   izeta = 1
                 lambda =    1.000000
                     rc =    6.790259
                 energy =   -0.258578
                kinetic =    1.481412
    potential(screened) =   -1.739989
       potential(ionic) =   -3.657461

   izeta = 2
                 rmatch =    4.608740
              splitnorm =    0.150000
                 energy =   -0.173757
                kinetic =    2.186690
    potential(screened) =   -2.360447
       potential(ionic) =   -4.464260

POLgen: Perturbative polarization orbital with L=  2

POLgen: Polarization orbital for state 2p

   izeta = 1
                     rc =    6.790259
                 energy =    0.684082
                kinetic =    1.471481
    potential(screened) =   -0.787399
       potential(ionic) =   -2.406985
atom: Total number of Sankey-type orbitals: 13

atm_pop: Valence configuration (for local Pseudopot. screening):
 2s( 2.00)                                                            
 2p( 1.00)                                                            
Vna: chval, zval:    3.00000   3.00000

Vna:  Cut-off radius for the neutral-atom potential:   6.790259
comcore: Pseudo-core radius Rcore=  2.122997

atom: _________________________________________________________________________

prinput: Basis input ----------------------------------------------------------

PAO.BasisType split     

%block ChemicalSpeciesLabel
    1    6 C                       # Species index, atomic number, species label
    2    5 B                       # Species index, atomic number, species label
%endblock ChemicalSpeciesLabel

%block PAO.Basis                 # Define Basis set
C                     2                    # Species label, number of l-shells
 n=2   0   2                         # n, l, Nzeta 
   4.633      3.432   
   1.000      1.000   
 n=2   1   2 P   1                   # n, l, Nzeta, Polarization, NzetaPol
   5.659      3.653   
   1.000      1.000   
B                     2                    # Species label, number of l-shells
 n=2   0   2                         # n, l, Nzeta 
   5.422      4.223   
   1.000      1.000   
 n=2   1   2 P   1                   # n, l, Nzeta, Polarization, NzetaPol
   6.790      4.609   
   1.000      1.000   
%endblock PAO.Basis

prinput: ----------------------------------------------------------------------

coor:   Atomic-coordinates input format  =     Cartesian coordinates
coor:                                          (in Angstroms)

siesta: Atomic coordinates (Bohr) and species
siesta:      2.23554   1.32097   0.00000  1        1
siesta:     32.50328  21.48508   0.00000  1        2
siesta:     34.83141  22.82873   0.00000  1        3
siesta:     37.15930  18.79590   0.00000  1        4
siesta:     32.50291  13.41944   0.00000  1        5
siesta:     34.83104  14.76308   0.00000  1        6
siesta:     30.17465   9.38661   0.00000  1        7
siesta:     32.50278  10.73026   0.00000  1        8
siesta:     27.84639   5.35379   0.00000  1        9
siesta:     30.17453   6.69743   0.00000  1       10
siesta:     27.84714  21.48508   0.00000  1       11
siesta:     30.17527  22.82873   0.00000  1       12
siesta:      6.89168   1.32097   0.00000  1       13
siesta:      9.21981   2.66461   0.00000  1       14
siesta:     13.87595   2.66461   0.00000  1       15
siesta:     16.20396   1.32097   0.00000  1       16
siesta:     18.53210   2.66461   0.00000  1       17
siesta:     23.19013   2.66461   0.00000  1       18
siesta:     25.51813   1.32097   0.00000  1       19
siesta:     27.84627   2.66461   0.00000  1       20
siesta:      4.56380   5.35379   0.00000  1       21
siesta:      6.89193   6.69743   0.00000  1       22
siesta:      9.21994   5.35379   0.00000  1       23
siesta:     11.54807   6.69743   0.00000  1       24
siesta:     13.87608   5.35379   0.00000  1       25
siesta:     16.20421   6.69743   0.00000  1       26
siesta:     18.53411   5.35379   0.00000  1       27
siesta:     20.86224   6.69743   0.00000  1       28
siesta:     23.19025   5.35379   0.00000  1       29
siesta:     25.51838   6.69743   0.00000  1       30
siesta:      9.22019  10.73026   0.00000  1       31
siesta:     11.54820   9.38661   0.00000  1       32
siesta:     13.87633  10.73026   0.00000  1       33
siesta:     18.53247  10.73026   0.00000  1       34
siesta:     20.86237   9.38661   0.00000  1       35
siesta:     23.19050  10.73026   0.00000  1       36
siesta:      9.22031  13.41944   0.00000  1       37
siesta:     11.54845  14.76308   0.00000  1       38
siesta:     13.87645  13.41944   0.00000  1       39
siesta:     16.20459  14.76308   0.00000  1       40
siesta:     18.53448  13.41944   0.00000  1       41
siesta:     20.86262  14.76308   0.00000  1       42
siesta:     13.87670  18.79590   0.00000  1       43
siesta:     16.20471  17.45226   0.00000  1       44
siesta:     18.53284  18.79590   0.00000  1       45
siesta:     13.87683  21.48508   0.00000  1       46
siesta:     16.20496  22.82873   0.00000  1       47
siesta:     18.53486  21.48508   0.00000  1       48
siesta:     20.86299  22.82873   0.00000  1       49
siesta:     27.84664  10.73026   0.00000  1       50
siesta:     23.19063  13.41944   0.00000  1       51
siesta:     25.51876  14.76308   0.00000  1       52
siesta:     23.19088  18.79590   0.00000  1       53
siesta:     27.84677  13.41944   0.00000  1       54
siesta:     30.17490  14.76308   0.00000  1       55
siesta:     25.51888  17.45226   0.00000  1       56
siesta:     27.84702  18.79590   0.00000  1       57
siesta:     23.19100  21.48508   0.00000  1       58
siesta:     25.51913  22.82873   0.00000  1       59
siesta:     30.17503  17.45226   0.00000  1       60
siesta:     32.50316  18.79590   0.00000  1       61
siesta:     37.16131  21.48508   0.00000  1       62
siesta:     39.48945  22.82873   0.00000  1       63
siesta:      4.56367   2.66461   0.00000  2       64
siesta:     34.83116  17.45226   0.00000  2       65
siesta:     11.54782   1.32097   0.00000  2       66
siesta:     20.86199   1.32097   0.00000  2       67
siesta:      6.89205   9.38661   0.00000  2       68
siesta:     16.20434   9.38661   0.00000  2       69
siesta:     11.54857  17.45226   0.00000  2       70
siesta:     25.51851   9.38661   0.00000  2       71
siesta:     20.86274  17.45226   0.00000  2       72

siesta: System type = slab      

initatomlists: Number of atoms, orbitals, and projectors:     72   936  1152

siesta: ******************** Simulation parameters ****************************
siesta:
siesta: The following are some of the parameters of the simulation.
siesta: A complete list of the parameters used, including default values,
siesta: can be found in file out.fdf
siesta:
redata: Non-Collinear-spin run           =     F
redata: SpinPolarized (Up/Down) run      =     F
redata: Number of spin components        =     1
redata: Long output                      =     F
redata: Number of Atomic Species         =        2
redata: Charge density info will appear in .RHO file
redata: Write Mulliken Pop.              =     NO
redata: Mesh Cutoff                      =   200.0000  Ry
redata: Net charge of the system         =     0.0000 |e|
redata: Max. number of SCF Iter          =      500
redata: SCF convergence failure will abort job
redata: Performing Pulay mixing using    =    10 iterations
redata: Mix DM in first SCF step ?       =     F
redata: Write Pulay info on disk?        =     F
redata: Discard 1st Pulay DM after  kick =     F
redata: New DM Mixing Weight             =     0.0500
redata: New DM Occupancy tolerance       = 0.000000000001
redata: No kicks to SCF
redata: DM Mixing Weight for Kicks       =     0.5000
redata: DM Tolerance for SCF             =     0.000100
redata: Require Energy convergence for SCF =     F
redata: DM Energy tolerance for SCF      =     0.000100 eV
redata: Require Harris convergence for SCF =     F
redata: DM Harris energy tolerance for SCF =     0.000100 eV
redata: Using Saved Data (generic)   =     F
redata: Use continuation files for DM    =     T
redata: Neglect nonoverlap interactions  =     F
redata: Method of Calculation            =     Diagonalization
redata: Divide and Conquer               =     T
redata: Electronic Temperature           =     0.0019  Ry
redata: Fix the spin of the system       =     F
redata: Dynamics option                  =     Verlet MD run
redata: Initial MD time step             =        1
redata:   Final MD time step             =        1
redata: Length of MD time step           =     1.0000  fs
redata: Initial Temperature of MD run    =     0.0000  K
redata: Perform a MD quench              =     F
redata: ***********************************************************************
Total number of electrons:   279.000000
Total ionic charge:   279.000000

* ProcessorY, Blocksize:    3  24

k-point displ. along   1 input, could be:     0.50    0.00
k-point displ. along   2 input, could be:     0.50    0.00
 Kpoints in:          231 . Kpoints trimmed:          231

siesta: k-grid: Number of k-points =   231
siesta: k-grid: Cutoff (effective) =     5.000 Ang
siesta: k-grid: Supercell and displacements
siesta: k-grid:   21   0   0      0.500
siesta: k-grid:    0  21   0      0.500
siesta: k-grid:    0   0   1      0.000
Naive supercell factors:     2    2    2

superc: Internal auxiliary supercell:     2 x     2 x     2  =       8
superc: Number of atoms, orbitals, and projectors:    576   7488   9216

* Maximum dynamic memory allocated =     4 MB

siesta:                 ==============================
                            Begin MD step =      1
                        ==============================

superc: Internal auxiliary supercell:     2 x     2 x     2  =       8
superc: Number of atoms, orbitals, and projectors:    576   7488   9216

outcell: Unit cell vectors (Ang):
       14.785000    0.000000    0.000000
        7.393000   12.805052    0.000000
        0.000000    0.000000   10.000000

outcell: Cell vector modules (Ang)   :   14.785000   14.786000   10.000000
outcell: Cell angles (23,13,12) (deg):     90.0000     90.0000     60.0000
outcell: Cell volume (Ang**3)        :   1893.2269
New_DM. Step:     1
Initializing Density Matrix...

iodm: Reading Density Matrix from files

InitMesh: MESH =   120 x   120 x    90 =     1296000
InitMesh: Mesh cutoff (required, used) =   200.000   223.865 Ry

* Maximum dynamic memory allocated =   150 MB

stepf: Fermi-Dirac step function

siesta: Program's energy decomposition (eV):
siesta: Ebs     =     -3691.285730
siesta: Eions   =     17250.500670
siesta: Ena     =      3769.690293
siesta: Ekin    =      7407.217997
siesta: Enl     =      -692.020735
siesta: DEna    =      -342.213825
siesta: DUscf   =        36.427995
siesta: DUext   =         0.000000
siesta: Exc     =     -4073.760121
siesta: eta*DQ  =         0.000000
siesta: Emadel  =         0.000000
siesta: Emeta   =         0.000000
siesta: Emolmec =         0.000000
siesta: Ekinion =         0.000000
siesta: Eharris =    -11145.156479
siesta: Etot    =    -11145.159066
siesta: FreeEng =    -11145.159066

siesta: iscf   Eharris(eV)      E_KS(eV)   FreeEng(eV)   dDmax  Ef(eV)
siesta:    1   -11145.1565   -11145.1591   -11145.1591  0.0000 -5.9655
timer: Routine,Calls,Time,% = IterSCF        1    1183.905  98.94
elaps: Routine,Calls,Wall,% = IterSCF        1      98.899  98.94

siesta: E_KS(eV) =           -11145.1565

siesta: E_KS - E_eggbox =    -11145.1565

siesta: Atomic forces (eV/Ang):
----------------------------------------
   Tot    0.194282   -0.137974    0.000000
----------------------------------------
   Max    3.747165
   Res    1.221048    sqrt( Sum f_i^2 / 3N )
----------------------------------------
   Max    3.747165    constrained

Stress-tensor-Voigt (kbar):     -118.85     -118.43       -0.25       -0.56        0.00        0.00
(Free)E + p*V (eV/cell)   -11051.6311
Target enthalpy (eV/cell)   -11145.1900

siesta: Stress tensor (static) (eV/Ang**3):
        -0.074180   -0.000348    0.000000
        -0.000348   -0.073916    0.000000
         0.000000    0.000000   -0.000157

siesta: Pressure (static):         79.17676485  kBar

siesta: Stress tensor (total) (eV/Ang**3):
        -0.074180   -0.000348    0.000000
        -0.000348   -0.073916    0.000000
         0.000000    0.000000   -0.000157

siesta: Pressure (total):         79.17676485  kBar

siesta: Temp_ion =       0.000 K

* Maximum dynamic memory allocated =   246 MB

siesta: Program's energy decomposition (eV):
siesta: Ebs     =     -3691.285730
siesta: Eions   =     17250.500670
siesta: Ena     =      3769.690293
siesta: Ekin    =      7407.222301
siesta: Enl     =      -692.021036
siesta: DEna    =      -342.214459
siesta: DUscf   =        36.427106
siesta: DUext   =         0.000000
siesta: Exc     =     -4073.760013
siesta: eta*DQ  =         0.000000
siesta: Emadel  =         0.000000
siesta: Emeta   =         0.000000
siesta: Emolmec =         0.000000
siesta: Ekinion =         0.000000
siesta: Eharris =    -11145.156479
siesta: Etot    =    -11145.156477
siesta: FreeEng =    -11145.190038

siesta: Final energy (eV):
siesta:  Band Struct. =   -3691.285730
siesta:       Kinetic =    7407.222301
siesta:       Hartree =   21692.823881
siesta:    Ext. field =       0.000000
siesta:   Exch.-corr. =   -4073.760013
siesta:  Ion-electron =  -50124.803262
siesta:       Ion-ion =   13953.360616
siesta:       Ekinion =       0.000000
siesta:         Total =  -11145.156477

siesta: Atomic forces (eV/Ang):
siesta:      1   -3.269682   -1.889606    0.000000
siesta:      2   -0.414840   -0.596001    0.000000
siesta:      3    0.282498   -2.864999    0.000000
siesta:      4    0.246606    3.747165    0.000000
siesta:      5    0.152095   -0.603037    0.000000
siesta:      6   -0.398414   -3.293851    0.000000
siesta:      7   -0.265585    1.395649    0.000000
siesta:      8   -3.217671    1.643657    0.000000
siesta:      9   -0.619903    0.090828    0.000000
siesta:     10    0.567766   -0.136404    0.000000
siesta:     11   -0.358450   -0.251471    0.000000
siesta:     12    0.158460   -0.297962    0.000000
siesta:     13    3.062178   -1.643834    0.000000
siesta:     14   -2.770169    1.123309    0.000000
siesta:     15    2.886562    1.476930    0.000000
siesta:     16   -0.070929    1.430185    0.000000
siesta:     17   -2.766371    1.461210    0.000000
siesta:     18    2.743081    1.683174    0.000000
siesta:     19    0.095411    0.367776    0.000000
siesta:     20    0.446212   -1.040047    0.000000
siesta:     21    0.126245    3.450247    0.000000
siesta:     22   -0.445354   -2.894440    0.000000
siesta:     23   -0.614391   -0.395818    0.000000
siesta:     24   -0.208361   -0.053676    0.000000
siesta:     25    1.141986   -0.517614    0.000000
siesta:     26   -0.048001   -3.220127    0.000000
siesta:     27   -0.975245   -0.430702    0.000000
siesta:     28   -0.105262   -0.025247    0.000000
siesta:     29    0.866770   -0.657317    0.000000
siesta:     30    0.268606   -3.465316    0.000000
siesta:     31    2.838240    1.725617    0.000000
siesta:     32    0.151193    1.057160    0.000000
siesta:     33   -2.767034    1.448053    0.000000
siesta:     34    2.746355    1.538663    0.000000
siesta:     35   -0.142981    1.057708    0.000000
siesta:     36   -2.682908    1.691656    0.000000
siesta:     37    0.696035   -1.186998    0.000000
siesta:     38    0.226971   -3.409111    0.000000
siesta:     39   -1.017325   -0.485759    0.000000
siesta:     40    0.039816   -0.089035    0.000000
siesta:     41    0.817608   -0.558990    0.000000
siesta:     42    0.114854   -3.137239    0.000000
siesta:     43    3.046914    1.453134    0.000000
siesta:     44   -0.095983    1.173001    0.000000
siesta:     45   -2.841091    1.907702    0.000000
siesta:     46    0.407254   -0.251916    0.000000
siesta:     47   -0.652165    0.893956    0.000000
siesta:     48   -0.278011   -0.577970    0.000000
siesta:     49    0.148205    0.610318    0.000000
siesta:     50    3.104100    1.524744    0.000000
siesta:     51   -1.226139   -0.672358    0.000000
siesta:     52    0.330956    0.309570    0.000000
siesta:     53    2.945942    1.855899    0.000000
siesta:     54    0.602951    0.024352    0.000000
siesta:     55   -0.334422    0.294058    0.000000
siesta:     56    0.038827    0.384465    0.000000
siesta:     57    0.312083   -0.414739    0.000000
siesta:     58    1.150746   -0.989360    0.000000
siesta:     59   -0.063918   -3.402214    0.000000
siesta:     60   -0.113029    0.647234    0.000000
siesta:     61   -3.538605    1.625744    0.000000
siesta:     62   -0.693216   -0.968783    0.000000
siesta:     63    0.359269    0.517490    0.000000
siesta:     64   -0.356656   -0.195180    0.000000
siesta:     65    0.025171    0.349283    0.000000
siesta:     66    0.178028    0.040791    0.000000
siesta:     67   -0.029848   -0.238344    0.000000
siesta:     68    0.177768    0.071647    0.000000
siesta:     69   -0.004161    0.018034    0.000000
siesta:     70   -0.036447    0.599026    0.000000
siesta:     71    0.058297    0.062484    0.000000
siesta:     72    0.054788   -0.034423    0.000000
siesta: ----------------------------------------
siesta:    Tot    0.194282   -0.137974    0.000000

siesta: Stress tensor (static) (eV/Ang**3):
siesta:    -0.074180   -0.000348    0.000000
siesta:    -0.000348   -0.073916    0.000000
siesta:     0.000000    0.000000   -0.000157

siesta: Cell volume =       1893.226895 Ang**3

siesta: Pressure (static):
siesta:                Solid            Molecule  Units
siesta:           0.00053822          0.00060912  Ry/Bohr**3
siesta:           0.04941772          0.05592722  eV/Ang**3
siesta:          79.17676485         89.60625859  kBar
(Free)E+ p_basis*V_orbitals  =      -11111.608839
(Free)Eharris+ p_basis*V_orbitals  =      -11111.606252

siesta: Electric dipole (a.u.)  =    0.000000    0.000000    0.000000
siesta: Electric dipole (Debye) =    0.000000    0.000000    0.000000

* Maximum dynamic memory allocated : Node    0 =   246 MB
* Maximum dynamic memory allocated : Node    1 =   153 MB
* Maximum dynamic memory allocated : Node    2 =   155 MB
* Maximum dynamic memory allocated : Node    3 =   234 MB
* Maximum dynamic memory allocated : Node    4 =   241 MB
* Maximum dynamic memory allocated : Node    5 =   148 MB
* Maximum dynamic memory allocated : Node    6 =   149 MB
* Maximum dynamic memory allocated : Node    7 =   234 MB
* Maximum dynamic memory allocated : Node    8 =   240 MB
* Maximum dynamic memory allocated : Node    9 =   148 MB
* Maximum dynamic memory allocated : Node   10 =   150 MB
* Maximum dynamic memory allocated : Node   11 =   235 MB

* Maximum memory occured during cdiag                         

timer: CPU execution times:
timer:  Routine       Calls   Time/call    Tot.time        %
timer:  siesta            1    1329.668    1329.668   100.00
timer:  Setup             1       3.431       3.431     0.26
timer:  bands             1       0.012       0.012     0.00
timer:  writewave         1       0.024       0.024     0.00
timer:  KSV_init          1       0.003       0.003     0.00
timer:  IterMD            1    1319.771    1319.771    99.26
timer:  hsparse           1       0.288       0.288     0.02
timer:  overlap           1       6.069       6.069     0.46
timer:  IterSCF           1    1183.905    1183.905    89.04
timer:  kinefsm           2       3.090       6.179     0.46
timer:  nlefsm            2      20.009      40.018     3.01
timer:  DHSCF             2      95.537     191.074    14.37
timer:  DHSCF1            1       1.191       1.191     0.09
timer:  DHSCF2            1      31.050      31.050     2.34
timer:  REORD            18       0.003       0.062     0.00
timer:  POISON            3       0.477       1.432     0.11
timer:  DHSCF3            2      66.770     133.541    10.04
timer:  rhoofd            2      13.901      27.802     2.09
timer:  cellXC            2       2.511       5.022     0.38
timer:  vmat              2      33.479      66.958     5.04
timer:  MolMec            2       0.000       0.000     0.00
timer:  diagon            1    1043.437    1043.437    78.47
timer:  cdiag            40      18.111     697.110    52.43
timer:  cdiag1           40       0.874      33.611     2.53
timer:  cdiag2           40       3.021     116.242     8.74
timer:  cdiag3           40      14.021     539.732    40.59
timer:  cdiag4           40       0.192       7.381     0.56
timer:  DHSCF4            1      25.236      25.236     1.90
timer:  dfscf             1      23.202      23.202     1.74
timer:  overfsm           1       0.299       0.299     0.02
timer:  optical           1       5.920       5.920     0.45
  

elaps: ELAPSED times:
elaps:  Routine       Calls   Time/call    Tot.time        %
elaps:  siesta            1     111.074     111.074   100.00
elaps:  Setup             1       0.287       0.287     0.26
elaps:  bands             1       0.001       0.001     0.00
elaps:  writewave         1       0.002       0.002     0.00
elaps:  KSV_init          1       0.000       0.000     0.00
elaps:  IterMD            1     110.247     110.247    99.25
elaps:  hsparse           1       0.028       0.028     0.02
elaps:  overlap           1       0.710       0.710     0.64
elaps:  IterSCF           1      98.899      98.899    89.04
elaps:  kinefsm           2       0.362       0.725     0.65
elaps:  nlefsm            2       1.864       3.728     3.36
elaps:  DHSCF             2       8.806      17.612    15.86
elaps:  DHSCF1            1       0.101       0.101     0.09
elaps:  DHSCF2            1       2.593       2.593     2.33
elaps:  REORD            18       0.000       0.005     0.00
elaps:  POISON            3       0.040       0.121     0.11
elaps:  DHSCF3            2       5.577      11.154    10.04
elaps:  rhoofd            2       2.038       4.075     3.67
elaps:  cellXC            2       0.210       0.420     0.38
elaps:  vmat              2       2.796       5.593     5.04
elaps:  MolMec            2       0.000       0.000     0.00
elaps:  diagon            1      87.165      87.165    78.47
elaps:  cdiag            40       1.475      58.982    53.10
elaps:  cdiag1           40       0.071       2.823     2.54
elaps:  cdiag2           40       0.241       9.654     8.69
elaps:  cdiag3           40       1.146      45.834    41.26
elaps:  cdiag4           40       0.017       0.663     0.60
elaps:  DHSCF4            1       3.759       3.759     3.38
elaps:  dfscf             1       3.513       3.513     3.16
elaps:  overfsm           1       0.032       0.032     0.03
elaps:  optical           1       0.000       0.000     0.00
  
>> End of run:   6-APR-2016  14:25:17
