Siesta Version:                                        siesta-3.2-pl-3
Architecture  : x86_64-unknown-linux-gnu--unknown
Compiler flags: mpiifort -g -O2 -fPIC -xSSE4.1 -fp-model source -shared-intel 
PARALLEL version

* Running on   12 nodes in parallel
>> Start of run:   6-APR-2016  14:56:29

                           ***********************       
                           *  WELCOME TO SIESTA  *       
                           ***********************       

reinit: Reading from standard input
************************** Dump of input data file ****************************
#(1) General system descriptors
SystemName            GRP_doping    # Descriptive name of the system
SystemLabel           GRP_doping    # Short name for naming files
%include STRUCT.fdf
%include KPT.fdf
%include BASIS.fdf
#%include TS.fdf # for transiesta calculation
#(4) DFT, Grid, SCF
XC.functional         GGA           # LDA or GGA (default = LDA)
XC.authors            PBE           # CA (Ceperley-Aldr) = PZ
                                    #    (Perdew-Zunger) - LDA - Default
                                    # PW92 (Perdew-Wang-92) - LDA
                                    # PBE (Perdew-Burke-Ernzerhof) - GGA
MeshCutoff            200.000000    Ry      # Default: 50.0 Ry ~ 0.444 Bohr
                                    #         100.0 Ry ~ 0.314 Bohr
MaxSCFIterations      500           # Default: 50
DM.MixingWeight       0.05          # Default: 0.25
DM.NumberPulay        10            # Default: 0
DM.PulayOnFile        F             # SystemLabel.P1, SystemLabel.P2
DM.Tolerance          1.d-4         # Default: 1.d-4
DM.UseSaveDM          .true.        # because of the bug
SCFMustConverge       .true.
NeglNonOverlapInt     F             # Default: F
Diag.ParallelOverK    .true.
#(5) Eigenvalue problem: order-N or diagonalization
SolutionMethod        Diagon        # or Transiesta
ElectronicTemperature 300.0 K       # Default: 300.0 K
#(6) Molecular dynamics and relaxations
#MD.TypeOfRun          CG            # Type of dynamics:
#MD.VariableCell       F
#MD.NumCGsteps         0           # 0 for single-point / 100 for gopt
#MD.MaxCGDispl         0.2 Bohr      # Default: 0.2 Bohr
#MD.MaxForceTol        0.02 eV/Ang   # Default: 0.04 eV/Ang
#MD.MaxStressTol       1.0 GPa       # Default: 1.0 GPa
************************** End of input data file *****************************

reinit: -----------------------------------------------------------------------
reinit: System Name: GRP_doping
reinit: -----------------------------------------------------------------------
reinit: System Label: GRP_doping                                                  
reinit: -----------------------------------------------------------------------

initatom: Reading input for the pseudopotentials and atomic orbitals ----------
 Species number:            1  Label: N Atomic number:           7
 Species number:            2  Label: C Atomic number:           6
Ground state valence configuration:   2s02  2p03
Reading pseudopotential information in formatted form from N.psf

Valence configuration for pseudopotential generation:
2s( 2.00) rc: 1.48
2p( 3.00) rc: 1.48
3d( 0.00) rc: 1.48
4f( 0.00) rc: 1.48
Ground state valence configuration:   2s02  2p02
Reading pseudopotential information in formatted form from C.psf

Valence configuration for pseudopotential generation:
2s( 2.00) rc: 1.54
2p( 2.00) rc: 1.54
3d( 0.00) rc: 1.54
4f( 0.00) rc: 1.54
For N, standard SIESTA heuristics set lmxkb to 3
 (one more than the basis l, including polarization orbitals).
Use PS.lmax or PS.KBprojectors blocks to override.
For C, standard SIESTA heuristics set lmxkb to 3
 (one more than the basis l, including polarization orbitals).
Use PS.lmax or PS.KBprojectors blocks to override.

<basis_specs>
===============================================================================
N                    Z=   7    Mass=  14.010        Charge= 0.17977+309
Lmxo=1 Lmxkb= 3    BasisType=split      Semic=F
L=0  Nsemic=0  Cnfigmx=2
          n=1  nzeta=2  polorb=0
            splnorm:   0.15000    
               vcte:    0.0000    
               rinn:    0.0000    
                rcs:    0.0000      0.0000    
            lambdas:    1.0000      1.0000    
L=1  Nsemic=0  Cnfigmx=2
          n=1  nzeta=2  polorb=1
            splnorm:   0.15000    
               vcte:    0.0000    
               rinn:    0.0000    
                rcs:    0.0000      0.0000    
            lambdas:    1.0000      1.0000    
-------------------------------------------------------------------------------
L=0  Nkbl=1  erefs: 0.17977+309
L=1  Nkbl=1  erefs: 0.17977+309
L=2  Nkbl=1  erefs: 0.17977+309
L=3  Nkbl=1  erefs: 0.17977+309
===============================================================================
</basis_specs>

atom: Called for N                     (Z =   7)

read_vps: Pseudopotential generation method:
read_vps: ATM3      Troullier-Martins                       
Total valence charge:    5.00000

read_vps: Pseudopotential includes a core correction:
read_vps: Pseudo-core for xc-correction

xc_check: Exchange-correlation functional:
xc_check: GGA Perdew, Burke & Ernzerhof 1996
V l=0 = -2*Zval/r beyond r=  1.4606
V l=1 = -2*Zval/r beyond r=  1.4606
V l=2 = -2*Zval/r beyond r=  1.4606
V l=3 = -2*Zval/r beyond r=  1.4606
All V_l potentials equal beyond r=  1.4606
This should be close to max(r_c) in ps generation
All pots = -2*Zval/r beyond r=  1.4606

VLOCAL1: 99.0% of the norm of Vloc inside     20.347 Ry
VLOCAL1: 99.9% of the norm of Vloc inside     46.372 Ry
atom: Maximum radius for 4*pi*r*r*local-pseudopot. charge    1.76189
atom: Maximum radius for r*vlocal+2*Zval:    1.53550
GHOST: No ghost state for L =  0
GHOST: No ghost state for L =  1
GHOST: No ghost state for L =  2
GHOST: No ghost state for L =  3

KBgen: Kleinman-Bylander projectors: 
   l= 0   rc=  1.634559   el= -1.363963   Ekb=  5.296955   kbcos=  0.335621
   l= 1   rc=  1.614250   el= -0.521451   Ekb= -5.259161   kbcos= -0.433408
   l= 2   rc=  1.718383   el=  0.001991   Ekb= -1.271464   kbcos= -0.007566
   l= 3   rc=  1.761893   el=  0.003093   Ekb= -0.494769   kbcos= -0.001015

KBgen: Total number of  Kleinman-Bylander projectors:   16
atom: -------------------------------------------------------------------------

atom: SANKEY-TYPE ORBITALS:
atom: Selected multiple-zeta basis: split     

SPLIT: Orbitals with angular momentum L= 0

SPLIT: Basis orbitals for state 2s

SPLIT: PAO cut-off radius determined from an
SPLIT: energy shift=  0.007350 Ry

   izeta = 1
                 lambda =    1.000000
                     rc =    4.071465
                 energy =   -1.356470
                kinetic =    1.176977
    potential(screened) =   -2.533447
       potential(ionic) =   -8.057990

   izeta = 2
                 rmatch =    2.905100
              splitnorm =    0.150000
                 energy =   -1.158343
                kinetic =    1.813009
    potential(screened) =   -2.971352
       potential(ionic) =   -8.901931

SPLIT: Orbitals with angular momentum L= 1

SPLIT: Basis orbitals for state 2p

SPLIT: PAO cut-off radius determined from an
SPLIT: energy shift=  0.007350 Ry

   izeta = 1
                 lambda =    1.000000
                     rc =    4.972977
                 energy =   -0.513884
                kinetic =    3.441732
    potential(screened) =   -3.955616
       potential(ionic) =   -9.287901

   izeta = 2
                 rmatch =    3.054066
              splitnorm =    0.150000
                 energy =   -0.318226
                kinetic =    5.125348
    potential(screened) =   -5.443573
       potential(ionic) =  -11.380999

POLgen: Perturbative polarization orbital with L=  2

POLgen: Polarization orbital for state 2p

   izeta = 1
                     rc =    4.972977
                 energy =    1.607437
                kinetic =    3.268125
    potential(screened) =   -1.660688
       potential(ionic) =   -5.973652
atom: Total number of Sankey-type orbitals: 13

atm_pop: Valence configuration (for local Pseudopot. screening):
 2s( 2.00)                                                            
 2p( 3.00)                                                            
Vna: chval, zval:    5.00000   5.00000

Vna:  Cut-off radius for the neutral-atom potential:   4.972977
comcore: Pseudo-core radius Rcore=  1.554824

atom: _________________________________________________________________________

<basis_specs>
===============================================================================
C                    Z=   6    Mass=  12.010        Charge= 0.17977+309
Lmxo=1 Lmxkb= 3    BasisType=split      Semic=F
L=0  Nsemic=0  Cnfigmx=2
          n=1  nzeta=2  polorb=0
            splnorm:   0.15000    
               vcte:    0.0000    
               rinn:    0.0000    
                rcs:    0.0000      0.0000    
            lambdas:    1.0000      1.0000    
L=1  Nsemic=0  Cnfigmx=2
          n=1  nzeta=2  polorb=1
            splnorm:   0.15000    
               vcte:    0.0000    
               rinn:    0.0000    
                rcs:    0.0000      0.0000    
            lambdas:    1.0000      1.0000    
-------------------------------------------------------------------------------
L=0  Nkbl=1  erefs: 0.17977+309
L=1  Nkbl=1  erefs: 0.17977+309
L=2  Nkbl=1  erefs: 0.17977+309
L=3  Nkbl=1  erefs: 0.17977+309
===============================================================================
</basis_specs>

atom: Called for C                     (Z =   6)

read_vps: Pseudopotential generation method:
read_vps: ATM3      Troullier-Martins                       
Total valence charge:    4.00000

read_vps: Pseudopotential includes a core correction:
read_vps: Pseudo-core for xc-correction

xc_check: Exchange-correlation functional:
xc_check: GGA Perdew, Burke & Ernzerhof 1996
V l=0 = -2*Zval/r beyond r=  1.5227
V l=1 = -2*Zval/r beyond r=  1.5227
V l=2 = -2*Zval/r beyond r=  1.5227
V l=3 = -2*Zval/r beyond r=  1.5038
All V_l potentials equal beyond r=  1.5227
This should be close to max(r_c) in ps generation
All pots = -2*Zval/r beyond r=  1.5227

VLOCAL1: 99.0% of the norm of Vloc inside     18.722 Ry
VLOCAL1: 99.9% of the norm of Vloc inside     42.668 Ry
atom: Maximum radius for 4*pi*r*r*local-pseudopot. charge    1.83678
atom: Maximum radius for r*vlocal+2*Zval:    1.58088
GHOST: No ghost state for L =  0
GHOST: No ghost state for L =  1
GHOST: No ghost state for L =  2
GHOST: No ghost state for L =  3

KBgen: Kleinman-Bylander projectors: 
   l= 0   rc=  1.704034   el= -1.009801   Ekb=  5.335044   kbcos=  0.316824
   l= 1   rc=  1.704034   el= -0.388707   Ekb= -3.785862   kbcos= -0.366464
   l= 2   rc=  1.791422   el=  0.001971   Ekb= -0.970471   kbcos= -0.009212
   l= 3   rc=  1.859892   el=  0.003065   Ekb= -0.399525   kbcos= -0.001223

KBgen: Total number of  Kleinman-Bylander projectors:   16
atom: -------------------------------------------------------------------------

atom: SANKEY-TYPE ORBITALS:
atom: Selected multiple-zeta basis: split     

SPLIT: Orbitals with angular momentum L= 0

SPLIT: Basis orbitals for state 2s

SPLIT: PAO cut-off radius determined from an
SPLIT: energy shift=  0.007350 Ry

   izeta = 1
                 lambda =    1.000000
                     rc =    4.632753
                 energy =   -1.002270
                kinetic =    0.855760
    potential(screened) =   -1.858031
       potential(ionic) =   -5.417575

   izeta = 2
                 rmatch =    3.431921
              splitnorm =    0.150000
                 energy =   -0.867111
                kinetic =    1.300804
    potential(screened) =   -2.167915
       potential(ionic) =   -5.962684

SPLIT: Orbitals with angular momentum L= 1

SPLIT: Basis orbitals for state 2p

SPLIT: PAO cut-off radius determined from an
SPLIT: energy shift=  0.007350 Ry

   izeta = 1
                 lambda =    1.000000
                     rc =    5.658549
                 energy =   -0.381140
                kinetic =    2.399701
    potential(screened) =   -2.780841
       potential(ionic) =   -6.206085

   izeta = 2
                 rmatch =    3.653288
              splitnorm =    0.150000
                 energy =   -0.249149
                kinetic =    3.542762
    potential(screened) =   -3.791911
       potential(ionic) =   -7.581078

POLgen: Perturbative polarization orbital with L=  2

POLgen: Polarization orbital for state 2p

   izeta = 1
                     rc =    5.658549
                 energy =    1.109913
                kinetic =    2.304789
    potential(screened) =   -1.194876
       potential(ionic) =   -4.013592
atom: Total number of Sankey-type orbitals: 13

atm_pop: Valence configuration (for local Pseudopot. screening):
 2s( 2.00)                                                            
 2p( 2.00)                                                            
Vna: chval, zval:    4.00000   4.00000

Vna:  Cut-off radius for the neutral-atom potential:   5.658549
comcore: Pseudo-core radius Rcore=  1.791422

atom: _________________________________________________________________________

prinput: Basis input ----------------------------------------------------------

PAO.BasisType split     

%block ChemicalSpeciesLabel
    1    7 N                       # Species index, atomic number, species label
    2    6 C                       # Species index, atomic number, species label
%endblock ChemicalSpeciesLabel

%block PAO.Basis                 # Define Basis set
N                     2                    # Species label, number of l-shells
 n=2   0   2                         # n, l, Nzeta 
   4.071      2.905   
   1.000      1.000   
 n=2   1   2 P   1                   # n, l, Nzeta, Polarization, NzetaPol
   4.973      3.054   
   1.000      1.000   
C                     2                    # Species label, number of l-shells
 n=2   0   2                         # n, l, Nzeta 
   4.633      3.432   
   1.000      1.000   
 n=2   1   2 P   1                   # n, l, Nzeta, Polarization, NzetaPol
   5.659      3.653   
   1.000      1.000   
%endblock PAO.Basis

prinput: ----------------------------------------------------------------------

coor:   Atomic-coordinates input format  =     Cartesian coordinates
coor:                                          (in Angstroms)

siesta: Atomic coordinates (Bohr) and species
siesta:      2.23554   1.32097   0.00000  1        1
siesta:     32.50328  21.48508   0.00000  1        2
siesta:     34.83141  22.82873   0.00000  1        3
siesta:     11.54782   1.32097   0.00000  1        4
siesta:     20.86199   1.32097   0.00000  1        5
siesta:      4.56380   5.35379   0.00000  1        6
siesta:      6.89193   6.69743   0.00000  1        7
siesta:     13.87608   5.35379   0.00000  1        8
siesta:     16.20421   6.69743   0.00000  1        9
siesta:     23.19025   5.35379   0.00000  1       10
siesta:     25.51838   6.69743   0.00000  1       11
siesta:      6.89205   9.38661   0.00000  1       12
siesta:     16.20434   9.38661   0.00000  1       13
siesta:      9.22031  13.41944   0.00000  1       14
siesta:     11.54845  14.76308   0.00000  1       15
siesta:     18.53448  13.41944   0.00000  1       16
siesta:     20.86262  14.76308   0.00000  1       17
siesta:     11.54857  17.45226   0.00000  1       18
siesta:     13.87683  21.48508   0.00000  1       19
siesta:     16.20496  22.82873   0.00000  1       20
siesta:     25.51851   9.38661   0.00000  1       21
siesta:     20.86274  17.45226   0.00000  1       22
siesta:     27.84677  13.41944   0.00000  1       23
siesta:     30.17490  14.76308   0.00000  1       24
siesta:     23.19100  21.48508   0.00000  1       25
siesta:     25.51913  22.82873   0.00000  1       26
siesta:     30.17503  17.45226   0.00000  1       27
siesta:      4.56367   2.66461   0.00000  2       28
siesta:     34.83116  17.45226   0.00000  2       29
siesta:     37.15930  18.79590   0.00000  2       30
siesta:     32.50291  13.41944   0.00000  2       31
siesta:     34.83104  14.76308   0.00000  2       32
siesta:     30.17465   9.38661   0.00000  2       33
siesta:     32.50278  10.73026   0.00000  2       34
siesta:     27.84639   5.35379   0.00000  2       35
siesta:     30.17453   6.69743   0.00000  2       36
siesta:     27.84714  21.48508   0.00000  2       37
siesta:     30.17527  22.82873   0.00000  2       38
siesta:      6.89168   1.32097   0.00000  2       39
siesta:      9.21981   2.66461   0.00000  2       40
siesta:     13.87595   2.66461   0.00000  2       41
siesta:     16.20396   1.32097   0.00000  2       42
siesta:     18.53210   2.66461   0.00000  2       43
siesta:     23.19013   2.66461   0.00000  2       44
siesta:     25.51813   1.32097   0.00000  2       45
siesta:     27.84627   2.66461   0.00000  2       46
siesta:      9.21994   5.35379   0.00000  2       47
siesta:     11.54807   6.69743   0.00000  2       48
siesta:     18.53411   5.35379   0.00000  2       49
siesta:     20.86224   6.69743   0.00000  2       50
siesta:      9.22019  10.73026   0.00000  2       51
siesta:     11.54820   9.38661   0.00000  2       52
siesta:     13.87633  10.73026   0.00000  2       53
siesta:     18.53247  10.73026   0.00000  2       54
siesta:     20.86237   9.38661   0.00000  2       55
siesta:     23.19050  10.73026   0.00000  2       56
siesta:     13.87645  13.41944   0.00000  2       57
siesta:     16.20459  14.76308   0.00000  2       58
siesta:     13.87670  18.79590   0.00000  2       59
siesta:     16.20471  17.45226   0.00000  2       60
siesta:     18.53284  18.79590   0.00000  2       61
siesta:     18.53486  21.48508   0.00000  2       62
siesta:     20.86299  22.82873   0.00000  2       63
siesta:     27.84664  10.73026   0.00000  2       64
siesta:     23.19063  13.41944   0.00000  2       65
siesta:     25.51876  14.76308   0.00000  2       66
siesta:     23.19088  18.79590   0.00000  2       67
siesta:     25.51888  17.45226   0.00000  2       68
siesta:     27.84702  18.79590   0.00000  2       69
siesta:     32.50316  18.79590   0.00000  2       70
siesta:     37.16131  21.48508   0.00000  2       71
siesta:     39.48945  22.82873   0.00000  2       72

siesta: System type = slab      

initatomlists: Number of atoms, orbitals, and projectors:     72   936  1152

siesta: ******************** Simulation parameters ****************************
siesta:
siesta: The following are some of the parameters of the simulation.
siesta: A complete list of the parameters used, including default values,
siesta: can be found in file out.fdf
siesta:
redata: Non-Collinear-spin run           =     F
redata: SpinPolarized (Up/Down) run      =     F
redata: Number of spin components        =     1
redata: Long output                      =     F
redata: Number of Atomic Species         =        2
redata: Charge density info will appear in .RHO file
redata: Write Mulliken Pop.              =     NO
redata: Mesh Cutoff                      =   200.0000  Ry
redata: Net charge of the system         =     0.0000 |e|
redata: Max. number of SCF Iter          =      500
redata: SCF convergence failure will abort job
redata: Performing Pulay mixing using    =    10 iterations
redata: Mix DM in first SCF step ?       =     F
redata: Write Pulay info on disk?        =     F
redata: Discard 1st Pulay DM after  kick =     F
redata: New DM Mixing Weight             =     0.0500
redata: New DM Occupancy tolerance       = 0.000000000001
redata: No kicks to SCF
redata: DM Mixing Weight for Kicks       =     0.5000
redata: DM Tolerance for SCF             =     0.000100
redata: Require Energy convergence for SCF =     F
redata: DM Energy tolerance for SCF      =     0.000100 eV
redata: Require Harris convergence for SCF =     F
redata: DM Harris energy tolerance for SCF =     0.000100 eV
redata: Using Saved Data (generic)   =     F
redata: Use continuation files for DM    =     T
redata: Neglect nonoverlap interactions  =     F
redata: Method of Calculation            =     Diagonalization
redata: Divide and Conquer               =     T
redata: Electronic Temperature           =     0.0019  Ry
redata: Fix the spin of the system       =     F
redata: Dynamics option                  =     Verlet MD run
redata: Initial MD time step             =        1
redata:   Final MD time step             =        1
redata: Length of MD time step           =     1.0000  fs
redata: Initial Temperature of MD run    =     0.0000  K
redata: Perform a MD quench              =     F
redata: ***********************************************************************
Total number of electrons:   315.000000
Total ionic charge:   315.000000

* ProcessorY, Blocksize:    3  24

k-point displ. along   1 input, could be:     0.50    0.00
k-point displ. along   2 input, could be:     0.50    0.00
 Kpoints in:          231 . Kpoints trimmed:          231

siesta: k-grid: Number of k-points =   231
siesta: k-grid: Cutoff (effective) =     5.000 Ang
siesta: k-grid: Supercell and displacements
siesta: k-grid:   21   0   0      0.500
siesta: k-grid:    0  21   0      0.500
siesta: k-grid:    0   0   1      0.000
Naive supercell factors:     2    2    2

superc: Internal auxiliary supercell:     2 x     2 x     2  =       8
superc: Number of atoms, orbitals, and projectors:    576   7488   9216

* Maximum dynamic memory allocated =     4 MB

siesta:                 ==============================
                            Begin MD step =      1
                        ==============================

superc: Internal auxiliary supercell:     2 x     2 x     2  =       8
superc: Number of atoms, orbitals, and projectors:    576   7488   9216

outcell: Unit cell vectors (Ang):
       14.785000    0.000000    0.000000
        7.393000   12.805052    0.000000
        0.000000    0.000000   10.000000

outcell: Cell vector modules (Ang)   :   14.785000   14.786000   10.000000
outcell: Cell angles (23,13,12) (deg):     90.0000     90.0000     60.0000
outcell: Cell volume (Ang**3)        :   1893.2269
New_DM. Step:     1
Initializing Density Matrix...

iodm: Reading Density Matrix from files

InitMesh: MESH =   120 x   120 x    90 =     1296000
InitMesh: Mesh cutoff (required, used) =   200.000   223.865 Ry

* Maximum dynamic memory allocated =   125 MB

stepf: Fermi-Dirac step function

siesta: Program's energy decomposition (eV):
siesta: Ebs     =     -4668.180600
siesta: Eions   =     22743.175864
siesta: Ena     =      4241.495010
siesta: Ekin    =     10097.731722
siesta: Enl     =     -1592.284525
siesta: DEna    =      -175.734082
siesta: DUscf   =        24.538114
siesta: DUext   =         0.000000
siesta: Exc     =     -4674.646478
siesta: eta*DQ  =         0.000000
siesta: Emadel  =         0.000000
siesta: Emeta   =         0.000000
siesta: Emolmec =         0.000000
siesta: Ekinion =         0.000000
siesta: Eharris =    -14822.079847
siesta: Etot    =    -14822.076103
siesta: FreeEng =    -14822.076103

siesta: iscf   Eharris(eV)      E_KS(eV)   FreeEng(eV)   dDmax  Ef(eV)
siesta:    1   -14822.0798   -14822.0761   -14822.0761  0.0000 -2.7947
timer: Routine,Calls,Time,% = IterSCF        1    1192.098  98.97
elaps: Routine,Calls,Wall,% = IterSCF        1      99.584  98.97

siesta: E_KS(eV) =           -14822.0798

siesta: E_KS - E_eggbox =    -14822.0798

siesta: Atomic forces (eV/Ang):
----------------------------------------
   Tot    0.241515   -0.012853    0.000000
----------------------------------------
   Max    1.192431
   Res    0.451969    sqrt( Sum f_i^2 / 3N )
----------------------------------------
   Max    1.192431    constrained

Stress-tensor-Voigt (kbar):       51.85       55.36        0.34        2.53        0.00        0.00
(Free)E + p*V (eV/cell)   -14864.4757
Target enthalpy (eV/cell)   -14822.1116

siesta: Stress tensor (static) (eV/Ang**3):
         0.032365    0.001581    0.000000
         0.001581    0.034552    0.000000
         0.000000    0.000000    0.000214

siesta: Pressure (static):        -35.85179312  kBar

siesta: Stress tensor (total) (eV/Ang**3):
         0.032365    0.001581    0.000000
         0.001581    0.034552    0.000000
         0.000000    0.000000    0.000214

siesta: Pressure (total):        -35.85179312  kBar

siesta: Temp_ion =       0.000 K

* Maximum dynamic memory allocated =   215 MB

siesta: Program's energy decomposition (eV):
siesta: Ebs     =     -4668.180600
siesta: Eions   =     22743.175864
siesta: Ena     =      4241.495010
siesta: Ekin    =     10097.731604
siesta: Enl     =     -1592.285673
siesta: DEna    =      -175.734000
siesta: DUscf   =        24.536349
siesta: DUext   =         0.000000
siesta: Exc     =     -4674.647272
siesta: eta*DQ  =         0.000000
siesta: Emadel  =         0.000000
siesta: Emeta   =         0.000000
siesta: Emolmec =         0.000000
siesta: Ekinion =         0.000000
siesta: Eharris =    -14822.079847
siesta: Etot    =    -14822.079847
siesta: FreeEng =    -14822.111561

siesta: Final energy (eV):
siesta:  Band Struct. =   -4668.180600
siesta:       Kinetic =   10097.731604
siesta:       Hartree =   28297.877306
siesta:    Ext. field =       0.000000
siesta:   Exch.-corr. =   -4674.647272
siesta:  Ion-electron =  -66080.376408
siesta:       Ion-ion =   17537.334923
siesta:       Ekinion =       0.000000
siesta:         Total =  -14822.079847

siesta: Atomic forces (eV/Ang):
siesta:      1   -0.610495    0.985350    0.000000
siesta:      2   -1.156776   -0.003977    0.000000
siesta:      3    0.505849   -0.232341    0.000000
siesta:      4   -0.587227    0.981251    0.000000
siesta:      5   -0.624019    0.985577    0.000000
siesta:      6   -1.171384   -0.007921    0.000000
siesta:      7    0.471741   -0.241435    0.000000
siesta:      8   -1.157074   -0.009826    0.000000
siesta:      9    0.497048   -0.246380    0.000000
siesta:     10   -1.160955   -0.012462    0.000000
siesta:     11    0.473642   -0.241966    0.000000
siesta:     12   -0.601363    1.000451    0.000000
siesta:     13   -0.585178    1.002039    0.000000
siesta:     14   -1.169361   -0.005796    0.000000
siesta:     15    0.472357   -0.242281    0.000000
siesta:     16   -1.192431   -0.000331    0.000000
siesta:     17    0.469251   -0.244911    0.000000
siesta:     18   -0.602702    0.999180    0.000000
siesta:     19   -1.145139   -0.007811    0.000000
siesta:     20    0.506465   -0.232645    0.000000
siesta:     21   -0.591640    0.997627    0.000000
siesta:     22   -0.614479    1.000329    0.000000
siesta:     23   -1.160040   -0.007865    0.000000
siesta:     24    0.471905   -0.241856    0.000000
siesta:     25   -1.159087   -0.007667    0.000000
siesta:     26    0.466944   -0.225563    0.000000
siesta:     27   -0.589402    0.998574    0.000000
siesta:     28    0.793909   -0.457531    0.000000
siesta:     29    0.180290   -0.105808    0.000000
siesta:     30   -0.333853   -0.139049    0.000000
siesta:     31    0.744399   -0.439323    0.000000
siesta:     32   -0.045818    0.384426    0.000000
siesta:     33    0.179076   -0.109649    0.000000
siesta:     34   -0.343409   -0.140086    0.000000
siesta:     35    0.743711   -0.439295    0.000000
siesta:     36   -0.046005    0.384271    0.000000
siesta:     37    0.743819   -0.433241    0.000000
siesta:     38   -0.058894    0.408415    0.000000
siesta:     39    0.179768   -0.128905    0.000000
siesta:     40   -0.354656   -0.140305    0.000000
siesta:     41    0.797563   -0.455311    0.000000
siesta:     42    0.182865   -0.127615    0.000000
siesta:     43   -0.320963   -0.140838    0.000000
siesta:     44    0.791606   -0.458372    0.000000
siesta:     45    0.181264   -0.129086    0.000000
siesta:     46   -0.342518   -0.140109    0.000000
siesta:     47    0.741230   -0.438292    0.000000
siesta:     48   -0.054706    0.388060    0.000000
siesta:     49    0.710646   -0.434591    0.000000
siesta:     50   -0.059533    0.388840    0.000000
siesta:     51    0.792660   -0.450596    0.000000
siesta:     52    0.177526   -0.109403    0.000000
siesta:     53   -0.353747   -0.137740    0.000000
siesta:     54    0.832340   -0.463133    0.000000
siesta:     55    0.150305   -0.101428    0.000000
siesta:     56   -0.358200   -0.138333    0.000000
siesta:     57    0.744895   -0.438655    0.000000
siesta:     58   -0.032302    0.383225    0.000000
siesta:     59    0.795179   -0.450490    0.000000
siesta:     60    0.181689   -0.106612    0.000000
siesta:     61   -0.322271   -0.141754    0.000000
siesta:     62    0.710192   -0.431684    0.000000
siesta:     63   -0.064226    0.407384    0.000000
siesta:     64    0.795744   -0.451724    0.000000
siesta:     65    0.740967   -0.437075    0.000000
siesta:     66   -0.055280    0.387166    0.000000
siesta:     67    0.790194   -0.450290    0.000000
siesta:     68    0.178327   -0.107893    0.000000
siesta:     69   -0.355054   -0.138496    0.000000
siesta:     70    0.795066   -0.450406    0.000000
siesta:     71    0.705537   -0.429807    0.000000
siesta:     72   -0.074269    0.410945    0.000000
siesta: ----------------------------------------
siesta:    Tot    0.241515   -0.012853    0.000000

siesta: Stress tensor (static) (eV/Ang**3):
siesta:     0.032365    0.001581    0.000000
siesta:     0.001581    0.034552    0.000000
siesta:     0.000000    0.000000    0.000214

siesta: Cell volume =       1893.226895 Ang**3

siesta: Pressure (static):
siesta:                Solid            Molecule  Units
siesta:          -0.00024371         -0.00026937  Ry/Bohr**3
siesta:          -0.02237669         -0.02473222  eV/Ang**3
siesta:         -35.85179312        -39.62581826  kBar
(Free)E+ p_basis*V_orbitals  =      -14795.233961
(Free)Eharris+ p_basis*V_orbitals  =      -14795.237706

siesta: Electric dipole (a.u.)  =    0.000000    0.000000    0.000000
siesta: Electric dipole (Debye) =    0.000000    0.000000    0.000000

* Maximum dynamic memory allocated : Node    0 =   215 MB
* Maximum dynamic memory allocated : Node    1 =   137 MB
* Maximum dynamic memory allocated : Node    2 =   138 MB
* Maximum dynamic memory allocated : Node    3 =   206 MB
* Maximum dynamic memory allocated : Node    4 =   212 MB
* Maximum dynamic memory allocated : Node    5 =   133 MB
* Maximum dynamic memory allocated : Node    6 =   134 MB
* Maximum dynamic memory allocated : Node    7 =   206 MB
* Maximum dynamic memory allocated : Node    8 =   212 MB
* Maximum dynamic memory allocated : Node    9 =   133 MB
* Maximum dynamic memory allocated : Node   10 =   134 MB
* Maximum dynamic memory allocated : Node   11 =   206 MB

* Maximum memory occured during cdiag                         

timer: CPU execution times:
timer:  Routine       Calls   Time/call    Tot.time        %
timer:  siesta            1    1302.218    1302.218   100.00
timer:  Setup             1       3.381       3.381     0.26
timer:  bands             1       0.012       0.012     0.00
timer:  writewave         1       0.024       0.024     0.00
timer:  KSV_init          1       0.002       0.002     0.00
timer:  IterMD            1    1292.382    1292.382    99.24
timer:  hsparse           1       0.179       0.179     0.01
timer:  overlap           1       8.314       8.314     0.64
timer:  IterSCF           1    1192.098    1192.098    91.54
timer:  kinefsm           2       4.190       8.381     0.64
timer:  nlefsm            2      17.298      34.597     2.66
timer:  DHSCF             2      68.354     136.707    10.50
timer:  DHSCF1            1       0.902       0.902     0.07
timer:  DHSCF2            1      22.659      22.659     1.74
timer:  REORD            18       0.003       0.061     0.00
timer:  POISON            3       0.481       1.443     0.11
timer:  DHSCF3            2      47.430      94.860     7.28
timer:  rhoofd            2       9.611      19.221     1.48
timer:  cellXC            2       2.396       4.792     0.37
timer:  vmat              2      23.105      46.211     3.55
timer:  MolMec            2       0.000       0.000     0.00
timer:  diagon            1    1083.401    1083.401    83.20
timer:  cdiag            40      17.961     691.215    53.08
timer:  cdiag1           40       0.877      33.743     2.59
timer:  cdiag2           40       3.035     116.842     8.97
timer:  cdiag3           40      13.829     532.184    40.87
timer:  cdiag4           40       0.216       8.316     0.64
timer:  DHSCF4            1      18.235      18.235     1.40
timer:  dfscf             1      16.858      16.858     1.29
timer:  overfsm           1       0.255       0.255     0.02
timer:  optical           1       5.914       5.914     0.45
  

elaps: ELAPSED times:
elaps:  Routine       Calls   Time/call    Tot.time        %
elaps:  siesta            1     108.782     108.782   100.00
elaps:  Setup             1       0.282       0.282     0.26
elaps:  bands             1       0.001       0.001     0.00
elaps:  writewave         1       0.002       0.002     0.00
elaps:  KSV_init          1       0.000       0.000     0.00
elaps:  IterMD            1     107.960     107.960    99.24
elaps:  hsparse           1       0.018       0.018     0.02
elaps:  overlap           1       0.703       0.703     0.65
elaps:  IterSCF           1      99.584      99.584    91.54
elaps:  kinefsm           2       0.357       0.714     0.66
elaps:  nlefsm            2       1.544       3.088     2.84
elaps:  DHSCF             2       6.349      12.698    11.67
elaps:  DHSCF1            1       0.077       0.077     0.07
elaps:  DHSCF2            1       1.891       1.891     1.74
elaps:  REORD            18       0.000       0.005     0.00
elaps:  POISON            3       0.041       0.122     0.11
elaps:  DHSCF3            2       3.962       7.923     7.28
elaps:  rhoofd            2       1.429       2.859     2.63
elaps:  cellXC            2       0.200       0.400     0.37
elaps:  vmat              2       1.930       3.860     3.55
elaps:  MolMec            2       0.000       0.000     0.00
elaps:  diagon            1      90.504      90.504    83.20
elaps:  cdiag            40       1.459      58.361    53.65
elaps:  cdiag1           40       0.071       2.820     2.59
elaps:  cdiag2           40       0.246       9.825     9.03
elaps:  cdiag3           40       1.124      44.957    41.33
elaps:  cdiag4           40       0.019       0.749     0.69
elaps:  DHSCF4            1       2.802       2.802     2.58
elaps:  dfscf             1       2.624       2.624     2.41
elaps:  overfsm           1       0.026       0.026     0.02
elaps:  optical           1       0.000       0.000     0.00
  
>> End of run:   6-APR-2016  14:58:18
