Siesta Version:                                        siesta-3.2-pl-3
Architecture  : x86_64-unknown-linux-gnu--unknown
Compiler flags: mpiifort -g -O2 -fPIC -xSSE4.1 -fp-model source -shared-intel 
PARALLEL version

* Running on    8 nodes in parallel
>> Start of run:   1-MAY-2016   1:04:01

                           ***********************       
                           *  WELCOME TO SIESTA  *       
                           ***********************       

reinit: Reading from standard input
************************** Dump of input data file ****************************
#(1) General system descriptors
SystemName            GRP_doping    # Descriptive name of the system
SystemLabel           GRP_doping    # Short name for naming files
%include STRUCT.fdf
%include KPT.fdf
%include BASIS.fdf
#%include TS.fdf # for transiesta calculation
#(4) DFT, Grid, SCF
XC.functional         GGA           # LDA or GGA (default = LDA)
XC.authors            PBE           # CA (Ceperley-Aldr) = PZ
                                    #    (Perdew-Zunger) - LDA - Default
                                    # PW92 (Perdew-Wang-92) - LDA
                                    # PBE (Perdew-Burke-Ernzerhof) - GGA
MeshCutoff            200.000000    Ry      # Default: 50.0 Ry ~ 0.444 Bohr
                                    #         100.0 Ry ~ 0.314 Bohr
MaxSCFIterations      500           # Default: 50
DM.MixingWeight       0.05          # Default: 0.25
DM.NumberPulay        10            # Default: 0
DM.PulayOnFile        F             # SystemLabel.P1, SystemLabel.P2
DM.Tolerance          1.d-4         # Default: 1.d-4
DM.UseSaveDM          .true.        # because of the bug
SCFMustConverge       .true.
NeglNonOverlapInt     F             # Default: F
#(5) Eigenvalue problem: order-N or diagonalization
SolutionMethod        Diagon        # or Transiesta
ElectronicTemperature 300.0 K       # Default: 300.0 K
#(6) Molecular dynamics and relaxations
#MD.TypeOfRun          CG            # Type of dynamics:
#MD.VariableCell       F
#MD.NumCGsteps         0           # 0 for single-point / 100 for gopt
#MD.MaxCGDispl         0.2 Bohr      # Default: 0.2 Bohr
#MD.MaxForceTol        0.02 eV/Ang   # Default: 0.04 eV/Ang
#MD.MaxStressTol       1.0 GPa       # Default: 1.0 GPa
# Geometry Constraints
#%block GeometryConstraints
#	position from 1 to 44
#%endblock GeometryConstraints
BandLinesScale   pi/a
%block BandLines
 1   0.00000000  0.00000000  0.00000000
50   0.00000000  0.07809418  0.00000000
50   0.04509075  0.07809242  0.00000000
20   0.00000000  0.00000000  0.00000000
%endblock BandLines
************************** End of input data file *****************************

reinit: -----------------------------------------------------------------------
reinit: System Name: GRP_doping
reinit: -----------------------------------------------------------------------
reinit: System Label: GRP_doping                                                  
reinit: -----------------------------------------------------------------------

initatom: Reading input for the pseudopotentials and atomic orbitals ----------
 Species number:            1  Label: B Atomic number:           5
 Species number:            2  Label: C Atomic number:           6
Ground state valence configuration:   2s02  2p01
Reading pseudopotential information in formatted form from B.psf

Valence configuration for pseudopotential generation:
2s( 2.00) rc: 1.74
2p( 1.00) rc: 1.74
3d( 0.00) rc: 1.74
4f( 0.00) rc: 1.74
Ground state valence configuration:   2s02  2p02
Reading pseudopotential information in formatted form from C.psf

Valence configuration for pseudopotential generation:
2s( 2.00) rc: 1.54
2p( 2.00) rc: 1.54
3d( 0.00) rc: 1.54
4f( 0.00) rc: 1.54
For B, standard SIESTA heuristics set lmxkb to 3
 (one more than the basis l, including polarization orbitals).
Use PS.lmax or PS.KBprojectors blocks to override.
For C, standard SIESTA heuristics set lmxkb to 3
 (one more than the basis l, including polarization orbitals).
Use PS.lmax or PS.KBprojectors blocks to override.

<basis_specs>
===============================================================================
B                    Z=   5    Mass=  10.810        Charge= 0.17977+309
Lmxo=1 Lmxkb= 3    BasisType=split      Semic=F
L=0  Nsemic=0  Cnfigmx=2
          n=1  nzeta=2  polorb=0
            splnorm:   0.15000    
               vcte:    0.0000    
               rinn:    0.0000    
                rcs:    0.0000      0.0000    
            lambdas:    1.0000      1.0000    
L=1  Nsemic=0  Cnfigmx=2
          n=1  nzeta=2  polorb=1
            splnorm:   0.15000    
               vcte:    0.0000    
               rinn:    0.0000    
                rcs:    0.0000      0.0000    
            lambdas:    1.0000      1.0000    
-------------------------------------------------------------------------------
L=0  Nkbl=1  erefs: 0.17977+309
L=1  Nkbl=1  erefs: 0.17977+309
L=2  Nkbl=1  erefs: 0.17977+309
L=3  Nkbl=1  erefs: 0.17977+309
===============================================================================
</basis_specs>

atom: Called for B                     (Z =   5)

read_vps: Pseudopotential generation method:
read_vps: ATM3      Troullier-Martins                       
Total valence charge:    3.00000

read_vps: Pseudopotential includes a core correction:
read_vps: Pseudo-core for xc-correction

xc_check: Exchange-correlation functional:
xc_check: GGA Perdew, Burke & Ernzerhof 1996
V l=0 = -2*Zval/r beyond r=  1.7165
V l=1 = -2*Zval/r beyond r=  1.7165
V l=2 = -2*Zval/r beyond r=  1.7165
V l=3 = -2*Zval/r beyond r=  1.6951
All V_l potentials equal beyond r=  1.7165
This should be close to max(r_c) in ps generation
All pots = -2*Zval/r beyond r=  1.7165

VLOCAL1: 99.0% of the norm of Vloc inside     14.733 Ry
VLOCAL1: 99.9% of the norm of Vloc inside     33.577 Ry
atom: Maximum radius for 4*pi*r*r*local-pseudopot. charge    2.04484
atom: Maximum radius for r*vlocal+2*Zval:    1.75994
GHOST: No ghost state for L =  0
GHOST: No ghost state for L =  1
GHOST: No ghost state for L =  2
GHOST: No ghost state for L =  3

KBgen: Kleinman-Bylander projectors: 
   l= 0   rc=  1.897051   el= -0.693730   Ekb=  4.595746   kbcos=  0.286105
   l= 1   rc=  1.920920   el= -0.265236   Ekb= -2.350715   kbcos= -0.315747
   l= 2   rc=  2.044840   el=  0.002055   Ekb= -0.690767   kbcos= -0.013822
   l= 3   rc=  2.149707   el=  0.003188   Ekb= -0.315358   kbcos= -0.002055

KBgen: Total number of  Kleinman-Bylander projectors:   16
atom: -------------------------------------------------------------------------

atom: SANKEY-TYPE ORBITALS:
atom: Selected multiple-zeta basis: split     

SPLIT: Orbitals with angular momentum L= 0

SPLIT: Basis orbitals for state 2s

SPLIT: PAO cut-off radius determined from an
SPLIT: energy shift=  0.007350 Ry

   izeta = 1
                 lambda =    1.000000
                     rc =    5.422032
                 energy =   -0.686029
                kinetic =    0.576707
    potential(screened) =   -1.262736
       potential(ionic) =   -3.271094

   izeta = 2
                 rmatch =    4.222573
              splitnorm =    0.150000
                 energy =   -0.602132
                kinetic =    0.858975
    potential(screened) =   -1.461107
       potential(ionic) =   -3.582536

SPLIT: Orbitals with angular momentum L= 1

SPLIT: Basis orbitals for state 2p

SPLIT: PAO cut-off radius determined from an
SPLIT: energy shift=  0.007350 Ry

   izeta = 1
                 lambda =    1.000000
                     rc =    6.790259
                 energy =   -0.258578
                kinetic =    1.481412
    potential(screened) =   -1.739989
       potential(ionic) =   -3.657461

   izeta = 2
                 rmatch =    4.608740
              splitnorm =    0.150000
                 energy =   -0.173757
                kinetic =    2.186690
    potential(screened) =   -2.360447
       potential(ionic) =   -4.464260

POLgen: Perturbative polarization orbital with L=  2

POLgen: Polarization orbital for state 2p

   izeta = 1
                     rc =    6.790259
                 energy =    0.684082
                kinetic =    1.471481
    potential(screened) =   -0.787399
       potential(ionic) =   -2.406985
atom: Total number of Sankey-type orbitals: 13

atm_pop: Valence configuration (for local Pseudopot. screening):
 2s( 2.00)                                                            
 2p( 1.00)                                                            
Vna: chval, zval:    3.00000   3.00000

Vna:  Cut-off radius for the neutral-atom potential:   6.790259
comcore: Pseudo-core radius Rcore=  2.122997

atom: _________________________________________________________________________

<basis_specs>
===============================================================================
C                    Z=   6    Mass=  12.010        Charge= 0.17977+309
Lmxo=1 Lmxkb= 3    BasisType=split      Semic=F
L=0  Nsemic=0  Cnfigmx=2
          n=1  nzeta=2  polorb=0
            splnorm:   0.15000    
               vcte:    0.0000    
               rinn:    0.0000    
                rcs:    0.0000      0.0000    
            lambdas:    1.0000      1.0000    
L=1  Nsemic=0  Cnfigmx=2
          n=1  nzeta=2  polorb=1
            splnorm:   0.15000    
               vcte:    0.0000    
               rinn:    0.0000    
                rcs:    0.0000      0.0000    
            lambdas:    1.0000      1.0000    
-------------------------------------------------------------------------------
L=0  Nkbl=1  erefs: 0.17977+309
L=1  Nkbl=1  erefs: 0.17977+309
L=2  Nkbl=1  erefs: 0.17977+309
L=3  Nkbl=1  erefs: 0.17977+309
===============================================================================
</basis_specs>

atom: Called for C                     (Z =   6)

read_vps: Pseudopotential generation method:
read_vps: ATM3      Troullier-Martins                       
Total valence charge:    4.00000

read_vps: Pseudopotential includes a core correction:
read_vps: Pseudo-core for xc-correction

xc_check: Exchange-correlation functional:
xc_check: GGA Perdew, Burke & Ernzerhof 1996
V l=0 = -2*Zval/r beyond r=  1.5227
V l=1 = -2*Zval/r beyond r=  1.5227
V l=2 = -2*Zval/r beyond r=  1.5227
V l=3 = -2*Zval/r beyond r=  1.5038
All V_l potentials equal beyond r=  1.5227
This should be close to max(r_c) in ps generation
All pots = -2*Zval/r beyond r=  1.5227

VLOCAL1: 99.0% of the norm of Vloc inside     18.722 Ry
VLOCAL1: 99.9% of the norm of Vloc inside     42.668 Ry
atom: Maximum radius for 4*pi*r*r*local-pseudopot. charge    1.83678
atom: Maximum radius for r*vlocal+2*Zval:    1.58088
GHOST: No ghost state for L =  0
GHOST: No ghost state for L =  1
GHOST: No ghost state for L =  2
GHOST: No ghost state for L =  3

KBgen: Kleinman-Bylander projectors: 
   l= 0   rc=  1.704034   el= -1.009801   Ekb=  5.335044   kbcos=  0.316824
   l= 1   rc=  1.704034   el= -0.388707   Ekb= -3.785862   kbcos= -0.366464
   l= 2   rc=  1.791422   el=  0.001971   Ekb= -0.970471   kbcos= -0.009212
   l= 3   rc=  1.859892   el=  0.003065   Ekb= -0.399525   kbcos= -0.001223

KBgen: Total number of  Kleinman-Bylander projectors:   16
atom: -------------------------------------------------------------------------

atom: SANKEY-TYPE ORBITALS:
atom: Selected multiple-zeta basis: split     

SPLIT: Orbitals with angular momentum L= 0

SPLIT: Basis orbitals for state 2s

SPLIT: PAO cut-off radius determined from an
SPLIT: energy shift=  0.007350 Ry

   izeta = 1
                 lambda =    1.000000
                     rc =    4.632753
                 energy =   -1.002270
                kinetic =    0.855760
    potential(screened) =   -1.858031
       potential(ionic) =   -5.417575

   izeta = 2
                 rmatch =    3.431921
              splitnorm =    0.150000
                 energy =   -0.867111
                kinetic =    1.300804
    potential(screened) =   -2.167915
       potential(ionic) =   -5.962684

SPLIT: Orbitals with angular momentum L= 1

SPLIT: Basis orbitals for state 2p

SPLIT: PAO cut-off radius determined from an
SPLIT: energy shift=  0.007350 Ry

   izeta = 1
                 lambda =    1.000000
                     rc =    5.658549
                 energy =   -0.381140
                kinetic =    2.399701
    potential(screened) =   -2.780841
       potential(ionic) =   -6.206085

   izeta = 2
                 rmatch =    3.653288
              splitnorm =    0.150000
                 energy =   -0.249149
                kinetic =    3.542762
    potential(screened) =   -3.791911
       potential(ionic) =   -7.581078

POLgen: Perturbative polarization orbital with L=  2

POLgen: Polarization orbital for state 2p

   izeta = 1
                     rc =    5.658549
                 energy =    1.109913
                kinetic =    2.304789
    potential(screened) =   -1.194876
       potential(ionic) =   -4.013592
atom: Total number of Sankey-type orbitals: 13

atm_pop: Valence configuration (for local Pseudopot. screening):
 2s( 2.00)                                                            
 2p( 2.00)                                                            
Vna: chval, zval:    4.00000   4.00000

Vna:  Cut-off radius for the neutral-atom potential:   5.658549
comcore: Pseudo-core radius Rcore=  1.791422

atom: _________________________________________________________________________

prinput: Basis input ----------------------------------------------------------

PAO.BasisType split     

%block ChemicalSpeciesLabel
    1    5 B                       # Species index, atomic number, species label
    2    6 C                       # Species index, atomic number, species label
%endblock ChemicalSpeciesLabel

%block PAO.Basis                 # Define Basis set
B                     2                    # Species label, number of l-shells
 n=2   0   2                         # n, l, Nzeta 
   5.422      4.223   
   1.000      1.000   
 n=2   1   2 P   1                   # n, l, Nzeta, Polarization, NzetaPol
   6.790      4.609   
   1.000      1.000   
C                     2                    # Species label, number of l-shells
 n=2   0   2                         # n, l, Nzeta 
   4.633      3.432   
   1.000      1.000   
 n=2   1   2 P   1                   # n, l, Nzeta, Polarization, NzetaPol
   5.659      3.653   
   1.000      1.000   
%endblock PAO.Basis

prinput: ----------------------------------------------------------------------

coor:   Atomic-coordinates input format  =     Fractional

siesta: Atomic coordinates (Bohr) and species
siesta:     -0.02582   5.28395   0.00000  1        1
siesta:      2.30256  38.89134   0.00000  1        2
siesta:      2.30256   6.62836   0.00000  1        3
siesta:      2.30256   9.31683   0.00000  1        4
siesta:      4.63094  10.66124   0.00000  1        5
siesta:      4.63094  13.34970   0.00000  1        6
siesta:      6.95932  17.38257   0.00000  1        7
siesta:      9.28770  21.41544   0.00000  1        8
siesta:     11.61608  25.44831   0.00000  1        9
siesta:      2.30256  25.44831   0.00000  1       10
siesta:      4.63094  29.48119   0.00000  1       11
siesta:     -0.02582  26.79272   0.00000  1       12
siesta:     -0.02582  29.48119   0.00000  1       13
siesta:     -4.68258  26.79272   0.00000  1       14
siesta:      2.30256  30.82560   0.00000  1       15
siesta:     -2.35420  30.82560   0.00000  1       16
siesta:     -0.02582  34.85847   0.00000  1       17
siesta:     -0.02582   2.59549   0.00000  2       18
siesta:     -2.35420  38.89134   0.00000  2       19
siesta:     -2.35420  41.57980   0.00000  2       20
siesta:      2.30256  41.57980   0.00000  2       21
siesta:      4.63094  34.85847   0.00000  2       22
siesta:      4.63094  37.54693   0.00000  2       23
siesta:      6.95932  30.82560   0.00000  2       24
siesta:      6.95932  33.51406   0.00000  2       25
siesta:      9.28770  26.79272   0.00000  2       26
siesta:      9.28770  29.48119   0.00000  2       27
siesta:     -4.68258  34.85847   0.00000  2       28
siesta:     -4.68258  37.54693   0.00000  2       29
siesta:      6.95932  14.69411   0.00000  2       30
siesta:      9.28770  18.72698   0.00000  2       31
siesta:     11.61608  22.75985   0.00000  2       32
siesta:     -2.35420   6.62836   0.00000  2       33
siesta:     -2.35420   9.31683   0.00000  2       34
siesta:     -0.02582  10.66124   0.00000  2       35
siesta:     -0.02582  13.34970   0.00000  2       36
siesta:      2.30256  14.69411   0.00000  2       37
siesta:      2.30256  17.38257   0.00000  2       38
siesta:      4.63094  18.72698   0.00000  2       39
siesta:      4.63094  21.41544   0.00000  2       40
siesta:      6.95932  22.75985   0.00000  2       41
siesta:      6.95932  25.44831   0.00000  2       42
siesta:     -4.68258  10.66124   0.00000  2       43
siesta:     -4.68258  13.34970   0.00000  2       44
siesta:     -2.35420  14.69411   0.00000  2       45
siesta:     -2.35420  17.38257   0.00000  2       46
siesta:     -0.02582  18.72698   0.00000  2       47
siesta:     -0.02582  21.41544   0.00000  2       48
siesta:      2.30256  22.75985   0.00000  2       49
siesta:     -7.01096  14.69411   0.00000  2       50
siesta:     -7.01096  17.38257   0.00000  2       51
siesta:     -4.68258  18.72698   0.00000  2       52
siesta:     -4.68258  21.41544   0.00000  2       53
siesta:     -2.35420  22.75985   0.00000  2       54
siesta:     -2.35420  25.44831   0.00000  2       55
siesta:     -9.33934  18.72698   0.00000  2       56
siesta:     -9.33934  21.41544   0.00000  2       57
siesta:     -7.01096  22.75985   0.00000  2       58
siesta:     -7.01096  25.44831   0.00000  2       59
siesta:    -11.66772  22.75985   0.00000  2       60
siesta:    -11.66772  25.44831   0.00000  2       61
siesta:     -9.33934  26.79272   0.00000  2       62
siesta:     -9.33934  29.48119   0.00000  2       63
siesta:      4.63094  26.79272   0.00000  2       64
siesta:     -4.68258  29.48119   0.00000  2       65
siesta:      2.30256  33.51406   0.00000  2       66
siesta:     -2.35420  33.51406   0.00000  2       67
siesta:     -7.01096  30.82560   0.00000  2       68
siesta:     -7.01096  33.51406   0.00000  2       69
siesta:     -0.02582  37.54693   0.00000  2       70
siesta:     -0.02582  42.92421   0.00000  2       71
siesta:     -0.02582  45.61267   0.00000  2       72

siesta: System type = slab      

initatomlists: Number of atoms, orbitals, and projectors:     72   936  1152

siesta: ******************** Simulation parameters ****************************
siesta:
siesta: The following are some of the parameters of the simulation.
siesta: A complete list of the parameters used, including default values,
siesta: can be found in file out.fdf
siesta:
redata: Non-Collinear-spin run           =     F
redata: SpinPolarized (Up/Down) run      =     F
redata: Number of spin components        =     1
redata: Long output                      =     F
redata: Number of Atomic Species         =        2
redata: Charge density info will appear in .RHO file
redata: Write Mulliken Pop.              =     NO
redata: Mesh Cutoff                      =   200.0000  Ry
redata: Net charge of the system         =     0.0000 |e|
redata: Max. number of SCF Iter          =      500
redata: SCF convergence failure will abort job
redata: Performing Pulay mixing using    =    10 iterations
redata: Mix DM in first SCF step ?       =     F
redata: Write Pulay info on disk?        =     F
redata: Discard 1st Pulay DM after  kick =     F
redata: New DM Mixing Weight             =     0.0500
redata: New DM Occupancy tolerance       = 0.000000000001
redata: No kicks to SCF
redata: DM Mixing Weight for Kicks       =     0.5000
redata: DM Tolerance for SCF             =     0.000100
redata: Require Energy convergence for SCF =     F
redata: DM Energy tolerance for SCF      =     0.000100 eV
redata: Require Harris convergence for SCF =     F
redata: DM Harris energy tolerance for SCF =     0.000100 eV
redata: Using Saved Data (generic)   =     F
redata: Use continuation files for DM    =     T
redata: Neglect nonoverlap interactions  =     F
redata: Method of Calculation            =     Diagonalization
redata: Divide and Conquer               =     T
redata: Electronic Temperature           =     0.0019  Ry
redata: Fix the spin of the system       =     F
redata: Dynamics option                  =     Verlet MD run
redata: Initial MD time step             =        1
redata:   Final MD time step             =        1
redata: Length of MD time step           =     1.0000  fs
redata: Initial Temperature of MD run    =     0.0000  K
redata: Perform a MD quench              =     F
redata: ***********************************************************************
Total number of electrons:   271.000000
Total ionic charge:   271.000000

* ProcessorY, Blocksize:    2  24

k-point displ. along   1 input, could be:     0.50    0.00
k-point displ. along   2 input, could be:     0.50    0.00
 Kpoints in:          231 . Kpoints trimmed:          231

siesta: k-grid: Number of k-points =   231
siesta: k-grid: Cutoff (effective) =     5.000 Ang
siesta: k-grid: Supercell and displacements
siesta: k-grid:   21   0   0      0.500
siesta: k-grid:    0  21   0      0.500
siesta: k-grid:    0   0   1      0.000
Naive supercell factors:     2    2    2

superc: Internal auxiliary supercell:     2 x     2 x     2  =       8
superc: Number of atoms, orbitals, and projectors:    576   7488   9216

* Maximum dynamic memory allocated =     4 MB

siesta:                 ==============================
                            Begin MD step =      1
                        ==============================

superc: Internal auxiliary supercell:     2 x     2 x     2  =       8
superc: Number of atoms, orbitals, and projectors:    576   7488   9216

outcell: Unit cell vectors (Ang):
       12.804619    7.392750    0.000000
        0.000000   14.785500    0.000000
        0.000000    0.000000   10.000000

outcell: Cell vector modules (Ang)   :   14.785500   14.785500   10.000000
outcell: Cell angles (23,13,12) (deg):     90.0000     90.0000     60.0000
outcell: Cell volume (Ang**3)        :   1893.2269
New_DM. Step:     1
Initializing Density Matrix...

InitMesh: MESH =   120 x   120 x    90 =     1296000
InitMesh: Mesh cutoff (required, used) =   200.000   223.865 Ry

* Maximum dynamic memory allocated =   226 MB

stepf: Fermi-Dirac step function

siesta: Program's energy decomposition (eV):
siesta: Ebs     =     -5594.294935
siesta: Eions   =     16226.046981
siesta: Ena     =      4325.894619
siesta: Ekin    =      5481.631332
siesta: Enl     =       789.334547
siesta: DEna    =        -0.000009
siesta: DUscf   =         0.000000
siesta: DUext   =         0.000000
siesta: Exc     =     -4188.531011
siesta: eta*DQ  =         0.000000
siesta: Emadel  =         0.000000
siesta: Emeta   =         0.000000
siesta: Emolmec =         0.000000
siesta: Ekinion =         0.000000
siesta: Eharris =     -9612.492390
siesta: Etot    =     -9817.717502
siesta: FreeEng =     -9817.717502

siesta: iscf   Eharris(eV)      E_KS(eV)   FreeEng(eV)   dDmax  Ef(eV)
siesta:    1    -9612.4924    -9817.7175    -9817.7175  7.2601 -8.3156
timer: Routine,Calls,Time,% = IterSCF        1    3495.563  99.66
elaps: Routine,Calls,Wall,% = IterSCF        1     437.854  99.66
siesta:    2   -14849.2073    -8753.4067    -8753.4597 15.1715 -5.2113
siesta:    3    -9666.5218    -9631.7571    -9631.7907  2.3410 -5.5186
siesta:    4    -9597.8717    -9559.8920    -9559.9271  1.4852 -5.4900
siesta:    5    -9509.7969    -9494.3827    -9494.4376  1.5499 -5.3137
siesta:    6    -9474.4123    -9460.4336    -9460.4777  0.8680 -5.1754
siesta:    7    -9467.0786    -9444.3085    -9444.3510  0.8138 -5.0023
siesta:    8    -9458.5892    -9436.4635    -9436.5218  0.9968 -5.0373
siesta:    9    -9454.7738    -9432.3681    -9432.4305  0.5894 -5.0726
siesta:   10    -9454.7049    -9423.4802    -9423.5465  0.5186 -4.9300
siesta:   11    -9452.8811    -9423.8254    -9423.8745  0.4808 -4.9356
siesta:   12    -9452.4733    -9423.5609    -9423.6089  0.4231 -4.9102
siesta:   13    -9451.9081    -9424.4853    -9424.5398  0.3443 -4.9765
siesta:   14    -9451.8408    -9428.2283    -9428.2851  0.2106 -4.9537
siesta:   15    -9451.4377    -9432.5309    -9432.6065  0.1746 -5.0224
siesta:   16    -9451.2145    -9435.8718    -9435.9506  0.1324 -5.0342
siesta:   17    -9450.9673    -9439.5828    -9439.6654  0.1072 -5.0606
siesta:   18    -9450.9597    -9441.6792    -9441.7656  0.0686 -5.0577
siesta:   19    -9450.9014    -9444.1260    -9444.2112  0.0417 -5.0593
siesta:   20    -9450.8829    -9446.3890    -9446.4745  0.0471 -5.0556
siesta:   21    -9450.8776    -9448.0299    -9448.1128  0.0389 -5.0547
siesta:   22    -9450.8623    -9449.2565    -9449.3367  0.0317 -5.0547
siesta:   23    -9450.8576    -9449.7852    -9449.8714  0.0283 -5.0604
siesta:   24    -9450.8543    -9450.3236    -9450.4067  0.0258 -5.0578
siesta:   25    -9450.8525    -9450.7761    -9450.8592  0.0249 -5.0574
siesta:   26    -9450.8514    -9451.2205    -9451.3031  0.0190 -5.0546
siesta:   27    -9450.8511    -9451.2598    -9451.3433  0.0093 -5.0517
siesta:   28    -9450.8511    -9451.0969    -9451.1792  0.0048 -5.0508
siesta:   29    -9450.8504    -9450.9990    -9451.0810  0.0031 -5.0492
siesta:   30    -9450.8498    -9450.9959    -9451.0784  0.0021 -5.0490
siesta:   31    -9450.8497    -9450.9576    -9451.0405  0.0016 -5.0492
siesta:   32    -9450.8498    -9450.9257    -9451.0086  0.0017 -5.0492
siesta:   33    -9450.8498    -9450.8925    -9450.9753  0.0016 -5.0492
siesta:   34    -9450.8500    -9450.8472    -9450.9301  0.0012 -5.0494
siesta:   35    -9450.8499    -9450.8491    -9450.9318  0.0005 -5.0497
siesta:   36    -9450.8499    -9450.8463    -9450.9290  0.0003 -5.0498
siesta:   37    -9450.8498    -9450.8439    -9450.9267  0.0001 -5.0499

siesta: E_KS(eV) =            -9450.8416

siesta: E_KS - E_eggbox =     -9450.8416

siesta: Atomic forces (eV/Ang):
----------------------------------------
   Tot   -0.122194    0.024453    0.000000
----------------------------------------
   Max  564.177477
   Res  148.368755    sqrt( Sum f_i^2 / 3N )
----------------------------------------
   Max  564.177477    constrained

Stress-tensor-Voigt (kbar):     -669.77    -2656.96       -0.62        5.75        0.00        0.00
(Free)E + p*V (eV/cell)    -8140.3374
Target enthalpy (eV/cell)    -9450.9243

siesta: Stress tensor (static) (eV/Ang**3):
        -0.418035    0.003590    0.000000
         0.003590   -1.658329    0.000000
         0.000000    0.000000   -0.000387

siesta: Pressure (static):       1109.11932416  kBar

siesta: Stress tensor (total) (eV/Ang**3):
        -0.418035    0.003590    0.000000
         0.003590   -1.658329    0.000000
         0.000000    0.000000   -0.000387

siesta: Pressure (total):       1109.11932416  kBar

siesta: Temp_ion =       0.000 K

* Maximum dynamic memory allocated =   242 MB
Computing bands...

siesta: Program's energy decomposition (eV):
siesta: Ebs     =     -4259.712425
siesta: Eions   =     16226.046981
siesta: Ena     =      4325.894619
siesta: Ekin    =      8324.535501
siesta: Enl     =      -865.650704
siesta: DEna    =      -755.699410
siesta: DUscf   =        99.408855
siesta: DUext   =         0.000000
siesta: Exc     =     -4353.283460
siesta: eta*DQ  =         0.000000
siesta: Emadel  =         0.000000
siesta: Emeta   =         0.000000
siesta: Emolmec =         0.000000
siesta: Ekinion =         0.000000
siesta: Eharris =     -9450.849841
siesta: Etot    =     -9450.841581
siesta: FreeEng =     -9450.924345

siesta: Final energy (eV):
siesta:  Band Struct. =   -4259.712425
siesta:       Kinetic =    8324.535501
siesta:       Hartree =   26687.527473
siesta:    Ext. field =       0.000000
siesta:   Exch.-corr. =   -4353.283460
siesta:  Ion-electron =  -61454.600375
siesta:       Ion-ion =   21344.979281
siesta:       Ekinion =       0.000000
siesta:         Total =   -9450.841581

siesta: Atomic forces (eV/Ang):
siesta:      1    1.996016 -101.657567    0.000000
siesta:      2   -0.575226  106.899378    0.000000
siesta:      3    0.640684  400.969524    0.000000
siesta:      4    0.217382 -101.842198    0.000000
siesta:      5   18.729687  394.036571    0.000000
siesta:      6   21.414165    1.574748    0.000000
siesta:      7    3.927991   -1.884442    0.000000
siesta:      8    4.537276   -1.145449    0.000000
siesta:      9    3.150797   -2.612701    0.000000
siesta:     10    3.522748   -1.712916    0.000000
siesta:     11    2.502126   -2.504503    0.000000
siesta:     12   -3.821990   -1.307731    0.000000
siesta:     13    0.330244 -416.200336    0.000000
siesta:     14    0.305893   -0.589382    0.000000
siesta:     15   15.157988    2.564729    0.000000
siesta:     16  -19.113289    1.308863    0.000000
siesta:     17   -0.970090  108.801255    0.000000
siesta:     18   -0.975633  410.140625    0.000000
siesta:     19   -0.649587  127.603148    0.000000
siesta:     20  -11.037186 -547.520784    0.000000
siesta:     21    8.666020 -544.322416    0.000000
siesta:     22   24.239296   -1.674709    0.000000
siesta:     23   23.224158 -399.899858    0.000000
siesta:     24    5.848357    3.616749    0.000000
siesta:     25   -2.615848    2.181412    0.000000
siesta:     26   -0.366737    4.424400    0.000000
siesta:     27   -1.071287   -1.558798    0.000000
siesta:     28  -26.797043    3.330921    0.000000
siesta:     29  -30.371220 -549.371356    0.000000
siesta:     30   -1.585311   -4.738991    0.000000
siesta:     31    0.745899   -1.241052    0.000000
siesta:     32    2.875528    2.266315    0.000000
siesta:     33   -3.761928  549.116219    0.000000
siesta:     34    0.981148 -130.872268    0.000000
siesta:     35   12.750920  549.386436    0.000000
siesta:     36    0.627206 -131.503762    0.000000
siesta:     37   32.422417  555.017374    0.000000
siesta:     38   21.571541   -5.703239    0.000000
siesta:     39   -3.515936    3.252141    0.000000
siesta:     40    0.008644    0.199560    0.000000
siesta:     41   -3.920578    1.796173    0.000000
siesta:     42   -1.501589   -0.694388    0.000000
siesta:     43  -33.914354  550.510378    0.000000
siesta:     44  -26.992060   -4.813509    0.000000
siesta:     45  -23.844453  555.945709    0.000000
siesta:     46  -22.136802   -4.825540    0.000000
siesta:     47   -0.488979  564.177477    0.000000
siesta:     48    0.586025    1.129577    0.000000
siesta:     49   -0.615996   -4.299034    0.000000
siesta:     50    2.499894   -1.955305    0.000000
siesta:     51   -1.839894   -0.260227    0.000000
siesta:     52    0.940661    2.636779    0.000000
siesta:     53   -0.435715   -0.964343    0.000000
siesta:     54    0.327049    0.478775    0.000000
siesta:     55    0.507997   -3.606752    0.000000
siesta:     56    0.746811   -0.385325    0.000000
siesta:     57   -2.547850   -2.190778    0.000000
siesta:     58    0.047614    1.076486    0.000000
siesta:     59   -3.127900   -2.814784    0.000000
siesta:     60    0.200022    6.976326    0.000000
siesta:     61    0.089213   -7.150011    0.000000
siesta:     62   -1.995121    1.329857    0.000000
siesta:     63    0.966553    1.288247    0.000000
siesta:     64    3.268464   -2.176324    0.000000
siesta:     65   -0.343502    2.648462    0.000000
siesta:     66   20.106622 -406.591543    0.000000
siesta:     67  -16.508198 -553.738160    0.000000
siesta:     68   -2.937103    0.251790    0.000000
siesta:     69    2.349418    2.111951    0.000000
siesta:     70    8.662083 -550.842978    0.000000
siesta:     71   -0.794663  126.986873    0.000000
siesta:     72   -0.641682 -548.837315    0.000000
siesta: ----------------------------------------
siesta:    Tot   -0.122194    0.024453    0.000000

siesta: Stress tensor (static) (eV/Ang**3):
siesta:    -0.418035    0.003590    0.000000
siesta:     0.003590   -1.658329    0.000000
siesta:     0.000000    0.000000   -0.000387

siesta: Cell volume =       1893.226884 Ang**3

siesta: Pressure (static):
siesta:                Solid            Molecule  Units
siesta:           0.00753949          0.11480249  Ry/Bohr**3
siesta:           0.69225035         10.54077466  eV/Ang**3
siesta:        1109.11932416      16888.36540636  kBar
(Free)E+ p_basis*V_orbitals  =       -9414.815520
(Free)Eharris+ p_basis*V_orbitals  =       -9414.821413

siesta: Electric dipole (a.u.)  =    0.000000    0.000000    0.000000
siesta: Electric dipole (Debye) =    0.000000    0.000000    0.000000

* Maximum dynamic memory allocated : Node    0 =   242 MB
* Maximum dynamic memory allocated : Node    1 =    84 MB
* Maximum dynamic memory allocated : Node    2 =    87 MB
* Maximum dynamic memory allocated : Node    3 =   230 MB
* Maximum dynamic memory allocated : Node    4 =   217 MB
* Maximum dynamic memory allocated : Node    5 =    79 MB
* Maximum dynamic memory allocated : Node    6 =    81 MB
* Maximum dynamic memory allocated : Node    7 =   201 MB

* Maximum memory occured during matrixMtoO                    

timer: CPU execution times:
timer:  Routine       Calls   Time/call    Tot.time        %
timer:  siesta            1  127606.230  127606.230   100.00
timer:  Setup             1       3.885       3.885     0.00
timer:  bands             3     244.024     732.073     0.57
timer:  writewave         1       0.046       0.046     0.00
timer:  KSV_init          1       0.006       0.006     0.00
timer:  IterMD            1  126865.013  126865.013    99.42
timer:  hsparse           1       0.516       0.516     0.00
timer:  overlap           1       7.206       7.206     0.01
timer:  IterSCF          37    3423.004  126651.135    99.25
timer:  kinefsm           2       3.746       7.491     0.01
timer:  nlefsm            2      19.885      39.769     0.03
timer:  DHSCF            38     109.299    4153.364     3.25
timer:  DHSCF1            1       0.992       0.992     0.00
timer:  DHSCF2            1      42.617      42.617     0.03
timer:  REORD           306       0.005       1.524     0.00
timer:  POISON           39       0.878      34.257     0.03
timer:  DHSCF3           38     107.088    4069.332     3.19
timer:  rhoofd           38      23.208     881.920     0.69
timer:  cellXC           38       3.376     128.300     0.10
timer:  vmat             38      50.280    1910.632     1.50
timer:  MolMec            2       0.000       0.000     0.00
timer:  diagon           37    3312.674  122568.937    96.05
timer:  c-eigval       8668       6.034   52303.516    40.99
timer:  c-buildHS      8668       0.052     450.736     0.35
timer:  cdiag         17215       6.177  106333.289    83.33
timer:  cdiag1        17215       0.385    6624.143     5.19
timer:  cdiag2        17215       1.769   30458.467    23.87
timer:  cdiag3        17215       3.738   64352.442    50.43
timer:  cdiag4        17215       0.159    2740.970     2.15
timer:  c-eigvec       8547       6.418   54852.120    42.99
timer:  c-buildD       8547       1.884   16101.703    12.62
timer:  DHSCF4            1      39.648      39.648     0.03
timer:  dfscf             1      36.893      36.893     0.03
timer:  overfsm           1       0.446       0.446     0.00
timer:  optical           1       4.622       4.622     0.00
  

elaps: ELAPSED times:
elaps:  Routine       Calls   Time/call    Tot.time        %
elaps:  siesta            1   15980.876   15980.876   100.00
elaps:  Setup             1       0.505       0.505     0.00
elaps:  bands             3      30.580      91.739     0.57
elaps:  writewave         1       0.006       0.006     0.00
elaps:  KSV_init          1       0.001       0.001     0.00
elaps:  IterMD            1   15888.026   15888.026    99.42
elaps:  hsparse           1       0.066       0.066     0.00
elaps:  overlap           1       0.906       0.906     0.01
elaps:  IterSCF          37     428.686   15861.372    99.25
elaps:  kinefsm           2       0.472       0.944     0.01
elaps:  nlefsm            2       2.648       5.297     0.03
elaps:  DHSCF            38      13.828     525.460     3.29
elaps:  DHSCF1            1       0.126       0.126     0.00
elaps:  DHSCF2            1       5.335       5.335     0.03
elaps:  REORD           306       0.001       0.204     0.00
elaps:  POISON           39       0.110       4.300     0.03
elaps:  DHSCF3           38      13.412     509.637     3.19
elaps:  rhoofd           38       6.551     248.947     1.56
elaps:  cellXC           38       0.423      16.057     0.10
elaps:  vmat             38       6.297     239.289     1.50
elaps:  MolMec            2       0.000       0.000     0.00
elaps:  diagon           37     414.864   15349.985    96.05
elaps:  c-eigval       8668       0.756    6550.063    40.99
elaps:  c-buildHS      8668       0.007      60.416     0.38
elaps:  cdiag         17215       0.769   13234.705    82.82
elaps:  cdiag1        17215       0.048     827.798     5.18
elaps:  cdiag2        17215       0.222    3815.340    23.87
elaps:  cdiag3        17215       0.469    8069.359    50.49
elaps:  cdiag4        17215       0.020     340.127     2.13
elaps:  c-eigvec       8547       0.795    6794.619    42.52
elaps:  c-buildD       8547       0.245    2091.105    13.09
elaps:  DHSCF4            1      10.271      10.271     0.06
elaps:  dfscf             1       9.712       9.712     0.06
elaps:  overfsm           1       0.058       0.058     0.00
elaps:  optical           1       0.001       0.001     0.00
  
>> End of run:   1-MAY-2016   5:30:22
