Siesta Version:                                        siesta-3.2-pl-3
Architecture  : x86_64-unknown-linux-gnu--unknown
Compiler flags: mpiifort -g -O2 -fPIC -xSSE4.1 -fp-model source -shared-intel 
PARALLEL version

* Running on   12 nodes in parallel
>> Start of run:  28-APR-2016  21:04:54

                           ***********************       
                           *  WELCOME TO SIESTA  *       
                           ***********************       

reinit: Reading from standard input
************************** Dump of input data file ****************************
#(1) General system descriptors
SystemName            GRP_doping    # Descriptive name of the system
SystemLabel           GRP_doping    # Short name for naming files
%include STRUCT.fdf
%include KPT.fdf
%include BASIS.fdf
#%include TS.fdf # for transiesta calculation
#(4) DFT, Grid, SCF
XC.functional         GGA           # LDA or GGA (default = LDA)
XC.authors            PBE           # CA (Ceperley-Aldr) = PZ
                                    #    (Perdew-Zunger) - LDA - Default
                                    # PW92 (Perdew-Wang-92) - LDA
                                    # PBE (Perdew-Burke-Ernzerhof) - GGA
MeshCutoff            200.000000    Ry      # Default: 50.0 Ry ~ 0.444 Bohr
                                    #         100.0 Ry ~ 0.314 Bohr
MaxSCFIterations      500           # Default: 50
DM.MixingWeight       0.05          # Default: 0.25
DM.NumberPulay        10            # Default: 0
DM.PulayOnFile        F             # SystemLabel.P1, SystemLabel.P2
DM.Tolerance          1.d-4         # Default: 1.d-4
DM.UseSaveDM          .true.        # because of the bug
SCFMustConverge       .true.
NeglNonOverlapInt     F             # Default: F
#(5) Eigenvalue problem: order-N or diagonalization
SolutionMethod        Diagon        # or Transiesta
ElectronicTemperature 300.0 K       # Default: 300.0 K
#(6) Molecular dynamics and relaxations
#MD.TypeOfRun          CG            # Type of dynamics:
#MD.VariableCell       F
#MD.NumCGsteps         0           # 0 for single-point / 100 for gopt
#MD.MaxCGDispl         0.2 Bohr      # Default: 0.2 Bohr
#MD.MaxForceTol        0.02 eV/Ang   # Default: 0.04 eV/Ang
#MD.MaxStressTol       1.0 GPa       # Default: 1.0 GPa
# Geometry Constraints
#%block GeometryConstraints
#	position from 1 to 44
#%endblock GeometryConstraints
BandLinesScale   pi/a
%block BandLines
 1   0.00000000  0.00000000  0.00000000
50   0.00000000  0.07809418  0.00000000
50   0.04509075  0.07809242  0.00000000
20   0.00000000  0.00000000  0.00000000
%endblock BandLines
************************** End of input data file *****************************

reinit: -----------------------------------------------------------------------
reinit: System Name: GRP_doping
reinit: -----------------------------------------------------------------------
reinit: System Label: GRP_doping                                                  
reinit: -----------------------------------------------------------------------

initatom: Reading input for the pseudopotentials and atomic orbitals ----------
 Species number:            1  Label: N Atomic number:           7
 Species number:            2  Label: C Atomic number:           6
Ground state valence configuration:   2s02  2p03
Reading pseudopotential information in formatted form from N.psf

Valence configuration for pseudopotential generation:
2s( 2.00) rc: 1.48
2p( 3.00) rc: 1.48
3d( 0.00) rc: 1.48
4f( 0.00) rc: 1.48
Ground state valence configuration:   2s02  2p02
Reading pseudopotential information in formatted form from C.psf

Valence configuration for pseudopotential generation:
2s( 2.00) rc: 1.54
2p( 2.00) rc: 1.54
3d( 0.00) rc: 1.54
4f( 0.00) rc: 1.54
For N, standard SIESTA heuristics set lmxkb to 3
 (one more than the basis l, including polarization orbitals).
Use PS.lmax or PS.KBprojectors blocks to override.
For C, standard SIESTA heuristics set lmxkb to 3
 (one more than the basis l, including polarization orbitals).
Use PS.lmax or PS.KBprojectors blocks to override.

<basis_specs>
===============================================================================
N                    Z=   7    Mass=  14.010        Charge= 0.17977+309
Lmxo=1 Lmxkb= 3    BasisType=split      Semic=F
L=0  Nsemic=0  Cnfigmx=2
          n=1  nzeta=2  polorb=0
            splnorm:   0.15000    
               vcte:    0.0000    
               rinn:    0.0000    
                rcs:    0.0000      0.0000    
            lambdas:    1.0000      1.0000    
L=1  Nsemic=0  Cnfigmx=2
          n=1  nzeta=2  polorb=1
            splnorm:   0.15000    
               vcte:    0.0000    
               rinn:    0.0000    
                rcs:    0.0000      0.0000    
            lambdas:    1.0000      1.0000    
-------------------------------------------------------------------------------
L=0  Nkbl=1  erefs: 0.17977+309
L=1  Nkbl=1  erefs: 0.17977+309
L=2  Nkbl=1  erefs: 0.17977+309
L=3  Nkbl=1  erefs: 0.17977+309
===============================================================================
</basis_specs>

atom: Called for N                     (Z =   7)

read_vps: Pseudopotential generation method:
read_vps: ATM3      Troullier-Martins                       
Total valence charge:    5.00000

read_vps: Pseudopotential includes a core correction:
read_vps: Pseudo-core for xc-correction

xc_check: Exchange-correlation functional:
xc_check: GGA Perdew, Burke & Ernzerhof 1996
V l=0 = -2*Zval/r beyond r=  1.4606
V l=1 = -2*Zval/r beyond r=  1.4606
V l=2 = -2*Zval/r beyond r=  1.4606
V l=3 = -2*Zval/r beyond r=  1.4606
All V_l potentials equal beyond r=  1.4606
This should be close to max(r_c) in ps generation
All pots = -2*Zval/r beyond r=  1.4606

VLOCAL1: 99.0% of the norm of Vloc inside     20.347 Ry
VLOCAL1: 99.9% of the norm of Vloc inside     46.372 Ry
atom: Maximum radius for 4*pi*r*r*local-pseudopot. charge    1.76189
atom: Maximum radius for r*vlocal+2*Zval:    1.53550
GHOST: No ghost state for L =  0
GHOST: No ghost state for L =  1
GHOST: No ghost state for L =  2
GHOST: No ghost state for L =  3

KBgen: Kleinman-Bylander projectors: 
   l= 0   rc=  1.634559   el= -1.363963   Ekb=  5.296955   kbcos=  0.335621
   l= 1   rc=  1.614250   el= -0.521451   Ekb= -5.259161   kbcos= -0.433408
   l= 2   rc=  1.718383   el=  0.001991   Ekb= -1.271464   kbcos= -0.007566
   l= 3   rc=  1.761893   el=  0.003093   Ekb= -0.494769   kbcos= -0.001015

KBgen: Total number of  Kleinman-Bylander projectors:   16
atom: -------------------------------------------------------------------------

atom: SANKEY-TYPE ORBITALS:
atom: Selected multiple-zeta basis: split     

SPLIT: Orbitals with angular momentum L= 0

SPLIT: Basis orbitals for state 2s

SPLIT: PAO cut-off radius determined from an
SPLIT: energy shift=  0.007350 Ry

   izeta = 1
                 lambda =    1.000000
                     rc =    4.071465
                 energy =   -1.356470
                kinetic =    1.176977
    potential(screened) =   -2.533447
       potential(ionic) =   -8.057990

   izeta = 2
                 rmatch =    2.905100
              splitnorm =    0.150000
                 energy =   -1.158343
                kinetic =    1.813009
    potential(screened) =   -2.971352
       potential(ionic) =   -8.901931

SPLIT: Orbitals with angular momentum L= 1

SPLIT: Basis orbitals for state 2p

SPLIT: PAO cut-off radius determined from an
SPLIT: energy shift=  0.007350 Ry

   izeta = 1
                 lambda =    1.000000
                     rc =    4.972977
                 energy =   -0.513884
                kinetic =    3.441732
    potential(screened) =   -3.955616
       potential(ionic) =   -9.287901

   izeta = 2
                 rmatch =    3.054066
              splitnorm =    0.150000
                 energy =   -0.318226
                kinetic =    5.125348
    potential(screened) =   -5.443573
       potential(ionic) =  -11.380999

POLgen: Perturbative polarization orbital with L=  2

POLgen: Polarization orbital for state 2p

   izeta = 1
                     rc =    4.972977
                 energy =    1.607437
                kinetic =    3.268125
    potential(screened) =   -1.660688
       potential(ionic) =   -5.973652
atom: Total number of Sankey-type orbitals: 13

atm_pop: Valence configuration (for local Pseudopot. screening):
 2s( 2.00)                                                            
 2p( 3.00)                                                            
Vna: chval, zval:    5.00000   5.00000

Vna:  Cut-off radius for the neutral-atom potential:   4.972977
comcore: Pseudo-core radius Rcore=  1.554824

atom: _________________________________________________________________________

<basis_specs>
===============================================================================
C                    Z=   6    Mass=  12.010        Charge= 0.17977+309
Lmxo=1 Lmxkb= 3    BasisType=split      Semic=F
L=0  Nsemic=0  Cnfigmx=2
          n=1  nzeta=2  polorb=0
            splnorm:   0.15000    
               vcte:    0.0000    
               rinn:    0.0000    
                rcs:    0.0000      0.0000    
            lambdas:    1.0000      1.0000    
L=1  Nsemic=0  Cnfigmx=2
          n=1  nzeta=2  polorb=1
            splnorm:   0.15000    
               vcte:    0.0000    
               rinn:    0.0000    
                rcs:    0.0000      0.0000    
            lambdas:    1.0000      1.0000    
-------------------------------------------------------------------------------
L=0  Nkbl=1  erefs: 0.17977+309
L=1  Nkbl=1  erefs: 0.17977+309
L=2  Nkbl=1  erefs: 0.17977+309
L=3  Nkbl=1  erefs: 0.17977+309
===============================================================================
</basis_specs>

atom: Called for C                     (Z =   6)

read_vps: Pseudopotential generation method:
read_vps: ATM3      Troullier-Martins                       
Total valence charge:    4.00000

read_vps: Pseudopotential includes a core correction:
read_vps: Pseudo-core for xc-correction

xc_check: Exchange-correlation functional:
xc_check: GGA Perdew, Burke & Ernzerhof 1996
V l=0 = -2*Zval/r beyond r=  1.5227
V l=1 = -2*Zval/r beyond r=  1.5227
V l=2 = -2*Zval/r beyond r=  1.5227
V l=3 = -2*Zval/r beyond r=  1.5038
All V_l potentials equal beyond r=  1.5227
This should be close to max(r_c) in ps generation
All pots = -2*Zval/r beyond r=  1.5227

VLOCAL1: 99.0% of the norm of Vloc inside     18.722 Ry
VLOCAL1: 99.9% of the norm of Vloc inside     42.668 Ry
atom: Maximum radius for 4*pi*r*r*local-pseudopot. charge    1.83678
atom: Maximum radius for r*vlocal+2*Zval:    1.58088
GHOST: No ghost state for L =  0
GHOST: No ghost state for L =  1
GHOST: No ghost state for L =  2
GHOST: No ghost state for L =  3

KBgen: Kleinman-Bylander projectors: 
   l= 0   rc=  1.704034   el= -1.009801   Ekb=  5.335044   kbcos=  0.316824
   l= 1   rc=  1.704034   el= -0.388707   Ekb= -3.785862   kbcos= -0.366464
   l= 2   rc=  1.791422   el=  0.001971   Ekb= -0.970471   kbcos= -0.009212
   l= 3   rc=  1.859892   el=  0.003065   Ekb= -0.399525   kbcos= -0.001223

KBgen: Total number of  Kleinman-Bylander projectors:   16
atom: -------------------------------------------------------------------------

atom: SANKEY-TYPE ORBITALS:
atom: Selected multiple-zeta basis: split     

SPLIT: Orbitals with angular momentum L= 0

SPLIT: Basis orbitals for state 2s

SPLIT: PAO cut-off radius determined from an
SPLIT: energy shift=  0.007350 Ry

   izeta = 1
                 lambda =    1.000000
                     rc =    4.632753
                 energy =   -1.002270
                kinetic =    0.855760
    potential(screened) =   -1.858031
       potential(ionic) =   -5.417575

   izeta = 2
                 rmatch =    3.431921
              splitnorm =    0.150000
                 energy =   -0.867111
                kinetic =    1.300804
    potential(screened) =   -2.167915
       potential(ionic) =   -5.962684

SPLIT: Orbitals with angular momentum L= 1

SPLIT: Basis orbitals for state 2p

SPLIT: PAO cut-off radius determined from an
SPLIT: energy shift=  0.007350 Ry

   izeta = 1
                 lambda =    1.000000
                     rc =    5.658549
                 energy =   -0.381140
                kinetic =    2.399701
    potential(screened) =   -2.780841
       potential(ionic) =   -6.206085

   izeta = 2
                 rmatch =    3.653288
              splitnorm =    0.150000
                 energy =   -0.249149
                kinetic =    3.542762
    potential(screened) =   -3.791911
       potential(ionic) =   -7.581078

POLgen: Perturbative polarization orbital with L=  2

POLgen: Polarization orbital for state 2p

   izeta = 1
                     rc =    5.658549
                 energy =    1.109913
                kinetic =    2.304789
    potential(screened) =   -1.194876
       potential(ionic) =   -4.013592
atom: Total number of Sankey-type orbitals: 13

atm_pop: Valence configuration (for local Pseudopot. screening):
 2s( 2.00)                                                            
 2p( 2.00)                                                            
Vna: chval, zval:    4.00000   4.00000

Vna:  Cut-off radius for the neutral-atom potential:   5.658549
comcore: Pseudo-core radius Rcore=  1.791422

atom: _________________________________________________________________________

prinput: Basis input ----------------------------------------------------------

PAO.BasisType split     

%block ChemicalSpeciesLabel
    1    7 N                       # Species index, atomic number, species label
    2    6 C                       # Species index, atomic number, species label
%endblock ChemicalSpeciesLabel

%block PAO.Basis                 # Define Basis set
N                     2                    # Species label, number of l-shells
 n=2   0   2                         # n, l, Nzeta 
   4.071      2.905   
   1.000      1.000   
 n=2   1   2 P   1                   # n, l, Nzeta, Polarization, NzetaPol
   4.973      3.054   
   1.000      1.000   
C                     2                    # Species label, number of l-shells
 n=2   0   2                         # n, l, Nzeta 
   4.633      3.432   
   1.000      1.000   
 n=2   1   2 P   1                   # n, l, Nzeta, Polarization, NzetaPol
   5.659      3.653   
   1.000      1.000   
%endblock PAO.Basis

prinput: ----------------------------------------------------------------------

coor:   Atomic-coordinates input format  =     Fractional

siesta: Atomic coordinates (Bohr) and species
siesta:     -0.02582  13.34970   0.00000  1        1
siesta:      2.30256  14.69411   0.00000  1        2
siesta:      2.30256  17.38257   0.00000  1        3
siesta:     -2.35420  14.69411   0.00000  1        4
siesta:     -2.35420  17.38257   0.00000  1        5
siesta:     -0.02582  18.72698   0.00000  1        6
siesta:     -0.02582  21.41544   0.00000  1        7
siesta:      2.30256  22.75985   0.00000  1        8
siesta:      2.30256  25.44831   0.00000  1        9
siesta:     -4.68258  21.41544   0.00000  1       10
siesta:     -2.35420  22.75985   0.00000  1       11
siesta:     -2.35420  25.44831   0.00000  1       12
siesta:     -9.33934  21.41544   0.00000  1       13
siesta:     -7.01096  22.75985   0.00000  1       14
siesta:     -7.01096  25.44831   0.00000  1       15
siesta:    -11.66772  22.75985   0.00000  1       16
siesta:    -11.66772  25.44831   0.00000  1       17
siesta:     -9.33934  26.79272   0.00000  1       18
siesta:     -0.02582  26.79272   0.00000  1       19
siesta:     -4.68258  26.79272   0.00000  1       20
siesta:     -0.02582   2.59549   0.00000  2       21
siesta:     -0.02582   5.28395   0.00000  2       22
siesta:     -2.35420  38.89134   0.00000  2       23
siesta:     -2.35420  41.57980   0.00000  2       24
siesta:      2.30256  38.89134   0.00000  2       25
siesta:      2.30256  41.57980   0.00000  2       26
siesta:      4.63094  34.85847   0.00000  2       27
siesta:      4.63094  37.54693   0.00000  2       28
siesta:      6.95932  30.82560   0.00000  2       29
siesta:      6.95932  33.51406   0.00000  2       30
siesta:      9.28770  26.79272   0.00000  2       31
siesta:      9.28770  29.48119   0.00000  2       32
siesta:     -4.68258  34.85847   0.00000  2       33
siesta:     -4.68258  37.54693   0.00000  2       34
siesta:      2.30256   6.62836   0.00000  2       35
siesta:      2.30256   9.31683   0.00000  2       36
siesta:      4.63094  10.66124   0.00000  2       37
siesta:      4.63094  13.34970   0.00000  2       38
siesta:      6.95932  14.69411   0.00000  2       39
siesta:      6.95932  17.38257   0.00000  2       40
siesta:      9.28770  18.72698   0.00000  2       41
siesta:      9.28770  21.41544   0.00000  2       42
siesta:     11.61608  22.75985   0.00000  2       43
siesta:     11.61608  25.44831   0.00000  2       44
siesta:     -2.35420   6.62836   0.00000  2       45
siesta:     -2.35420   9.31683   0.00000  2       46
siesta:     -0.02582  10.66124   0.00000  2       47
siesta:      4.63094  18.72698   0.00000  2       48
siesta:      4.63094  21.41544   0.00000  2       49
siesta:      6.95932  22.75985   0.00000  2       50
siesta:      6.95932  25.44831   0.00000  2       51
siesta:     -4.68258  10.66124   0.00000  2       52
siesta:     -4.68258  13.34970   0.00000  2       53
siesta:     -7.01096  14.69411   0.00000  2       54
siesta:     -7.01096  17.38257   0.00000  2       55
siesta:     -4.68258  18.72698   0.00000  2       56
siesta:     -9.33934  18.72698   0.00000  2       57
siesta:     -9.33934  29.48119   0.00000  2       58
siesta:      4.63094  26.79272   0.00000  2       59
siesta:      4.63094  29.48119   0.00000  2       60
siesta:     -0.02582  29.48119   0.00000  2       61
siesta:     -4.68258  29.48119   0.00000  2       62
siesta:      2.30256  30.82560   0.00000  2       63
siesta:      2.30256  33.51406   0.00000  2       64
siesta:     -2.35420  30.82560   0.00000  2       65
siesta:     -2.35420  33.51406   0.00000  2       66
siesta:     -7.01096  30.82560   0.00000  2       67
siesta:     -7.01096  33.51406   0.00000  2       68
siesta:     -0.02582  34.85847   0.00000  2       69
siesta:     -0.02582  37.54693   0.00000  2       70
siesta:     -0.02582  42.92421   0.00000  2       71
siesta:     -0.02582  45.61267   0.00000  2       72

siesta: System type = slab      

initatomlists: Number of atoms, orbitals, and projectors:     72   936  1152

siesta: ******************** Simulation parameters ****************************
siesta:
siesta: The following are some of the parameters of the simulation.
siesta: A complete list of the parameters used, including default values,
siesta: can be found in file out.fdf
siesta:
redata: Non-Collinear-spin run           =     F
redata: SpinPolarized (Up/Down) run      =     F
redata: Number of spin components        =     1
redata: Long output                      =     F
redata: Number of Atomic Species         =        2
redata: Charge density info will appear in .RHO file
redata: Write Mulliken Pop.              =     NO
redata: Mesh Cutoff                      =   200.0000  Ry
redata: Net charge of the system         =     0.0000 |e|
redata: Max. number of SCF Iter          =      500
redata: SCF convergence failure will abort job
redata: Performing Pulay mixing using    =    10 iterations
redata: Mix DM in first SCF step ?       =     F
redata: Write Pulay info on disk?        =     F
redata: Discard 1st Pulay DM after  kick =     F
redata: New DM Mixing Weight             =     0.0500
redata: New DM Occupancy tolerance       = 0.000000000001
redata: No kicks to SCF
redata: DM Mixing Weight for Kicks       =     0.5000
redata: DM Tolerance for SCF             =     0.000100
redata: Require Energy convergence for SCF =     F
redata: DM Energy tolerance for SCF      =     0.000100 eV
redata: Require Harris convergence for SCF =     F
redata: DM Harris energy tolerance for SCF =     0.000100 eV
redata: Using Saved Data (generic)   =     F
redata: Use continuation files for DM    =     T
redata: Neglect nonoverlap interactions  =     F
redata: Method of Calculation            =     Diagonalization
redata: Divide and Conquer               =     T
redata: Electronic Temperature           =     0.0019  Ry
redata: Fix the spin of the system       =     F
redata: Dynamics option                  =     Verlet MD run
redata: Initial MD time step             =        1
redata:   Final MD time step             =        1
redata: Length of MD time step           =     1.0000  fs
redata: Initial Temperature of MD run    =     0.0000  K
redata: Perform a MD quench              =     F
redata: ***********************************************************************
Total number of electrons:   308.000000
Total ionic charge:   308.000000

* ProcessorY, Blocksize:    3  24

k-point displ. along   1 input, could be:     0.50    0.00
k-point displ. along   2 input, could be:     0.50    0.00
 Kpoints in:          231 . Kpoints trimmed:          231

siesta: k-grid: Number of k-points =   231
siesta: k-grid: Cutoff (effective) =     5.000 Ang
siesta: k-grid: Supercell and displacements
siesta: k-grid:   21   0   0      0.500
siesta: k-grid:    0  21   0      0.500
siesta: k-grid:    0   0   1      0.000
Naive supercell factors:     2    2    2

superc: Internal auxiliary supercell:     2 x     2 x     2  =       8
superc: Number of atoms, orbitals, and projectors:    576   7488   9216

* Maximum dynamic memory allocated =     4 MB

siesta:                 ==============================
                            Begin MD step =      1
                        ==============================

superc: Internal auxiliary supercell:     2 x     2 x     2  =       8
superc: Number of atoms, orbitals, and projectors:    576   7488   9216

outcell: Unit cell vectors (Ang):
       12.804619    7.392750    0.000000
        0.000000   14.785500    0.000000
        0.000000    0.000000   10.000000

outcell: Cell vector modules (Ang)   :   14.785500   14.785500   10.000000
outcell: Cell angles (23,13,12) (deg):     90.0000     90.0000     60.0000
outcell: Cell volume (Ang**3)        :   1893.2269
New_DM. Step:     1
Initializing Density Matrix...

InitMesh: MESH =   120 x   120 x    90 =     1296000
InitMesh: Mesh cutoff (required, used) =   200.000   223.865 Ry

* Maximum dynamic memory allocated =   132 MB

stepf: Fermi-Dirac step function

siesta: Program's energy decomposition (eV):
siesta: Ebs     =     -6238.572962
siesta: Eions   =     21617.947954
siesta: Ena     =      4927.511425
siesta: Ekin    =      8056.630787
siesta: Enl     =        61.484823
siesta: DEna    =        -0.000015
siesta: DUscf   =         0.000000
siesta: DUext   =         0.000000
siesta: Exc     =     -4667.841772
siesta: eta*DQ  =         0.000000
siesta: Emadel  =         0.000000
siesta: Emeta   =         0.000000
siesta: Emolmec =         0.000000
siesta: Ekinion =         0.000000
siesta: Eharris =    -12886.555788
siesta: Etot    =    -13240.162707
siesta: FreeEng =    -13240.162707

siesta: iscf   Eharris(eV)      E_KS(eV)   FreeEng(eV)   dDmax  Ef(eV)
siesta:    1   -12886.5558   -13240.1627   -13240.1627  6.4864 -6.8459
timer: Routine,Calls,Time,% = IterSCF        1    3013.504  99.59
elaps: Routine,Calls,Wall,% = IterSCF        1     251.724  99.59
siesta:    2   -19886.1964   -11991.4923   -11991.5624 20.2487 -7.3522
siesta:    3   -12805.2735   -13090.3623   -13090.3750  3.5624 -5.7187
siesta:    4   -12784.0818   -12911.3003   -12911.3151  1.4532 -4.5115
siesta:    5   -12723.3235   -12850.4626   -12850.4908  0.8964 -3.9775
siesta:    6   -12716.0329   -12781.5921   -12781.6224  1.0190 -3.6469
siesta:    7   -12714.1228   -12770.2885   -12770.3194  0.9231 -3.6869
siesta:    8   -12710.2114   -12758.6481   -12758.6736  0.7522 -3.7632
siesta:    9   -12708.4394   -12729.6353   -12729.6899  0.6272 -3.9211
siesta:   10   -12708.1183   -12713.1030   -12713.1597  0.4865 -3.8554
siesta:   11   -12708.5469   -12693.6783   -12693.7111  0.3658 -3.8614
siesta:   12   -12707.9949   -12683.3051   -12683.3480  0.1824 -3.7404
siesta:   13   -12707.5897   -12679.6852   -12679.7195  0.1239 -3.7081
siesta:   14   -12707.0512   -12684.0822   -12684.1199  0.1526 -3.7338
siesta:   15   -12706.7374   -12686.2074   -12686.2502  0.1363 -3.7663
siesta:   16   -12706.6120   -12690.0116   -12690.0413  0.0568 -3.7994
siesta:   17   -12706.5718   -12693.3957   -12693.4321  0.0758 -3.8193
siesta:   18   -12706.5335   -12697.5687   -12697.6027  0.0325 -3.8288
siesta:   19   -12706.5157   -12701.5151   -12701.5494  0.0333 -3.8258
siesta:   20   -12706.5070   -12704.0885   -12704.1254  0.0314 -3.8217
siesta:   21   -12706.5027   -12705.6976   -12705.7329  0.0304 -3.8204
siesta:   22   -12706.5013   -12706.5298   -12706.5673  0.0175 -3.8184
siesta:   23   -12706.4985   -12706.7422   -12706.7772  0.0075 -3.8127
siesta:   24   -12706.4977   -12706.7095   -12706.7457  0.0068 -3.8111
siesta:   25   -12706.4972   -12706.7025   -12706.7383  0.0051 -3.8111
siesta:   26   -12706.4969   -12706.7405   -12706.7764  0.0031 -3.8108
siesta:   27   -12706.4968   -12706.7694   -12706.8056  0.0018 -3.8115
siesta:   28   -12706.4968   -12706.6776   -12706.7137  0.0013 -3.8115
siesta:   29   -12706.4968   -12706.6206   -12706.6567  0.0007 -3.8118
siesta:   30   -12706.4968   -12706.5784   -12706.6146  0.0004 -3.8120
siesta:   31   -12706.4968   -12706.5500   -12706.5861  0.0003 -3.8120
siesta:   32   -12706.4968   -12706.5465   -12706.5826  0.0002 -3.8121
siesta:   33   -12706.4968   -12706.5432   -12706.5793  0.0002 -3.8121
siesta:   34   -12706.4968   -12706.5231   -12706.5593  0.0001 -3.8121
siesta:   35   -12706.4968   -12706.5165   -12706.5527  0.0001 -3.8121
siesta:   36   -12706.4968   -12706.5100   -12706.5461  0.0001 -3.8121

siesta: E_KS(eV) =           -12706.5032

siesta: E_KS - E_eggbox =    -12706.5032

siesta: Atomic forces (eV/Ang):
----------------------------------------
   Tot    0.121828    0.005363    0.000000
----------------------------------------
   Max  691.916850
   Res  172.347928    sqrt( Sum f_i^2 / 3N )
----------------------------------------
   Max  691.916850    constrained

Stress-tensor-Voigt (kbar):     -698.02    -3058.15       -0.07        1.36        0.00        0.00
(Free)E + p*V (eV/cell)   -11227.0229
Target enthalpy (eV/cell)   -12706.5393

siesta: Stress tensor (static) (eV/Ang**3):
        -0.435666    0.000849    0.000000
         0.000849   -1.908729    0.000000
         0.000000    0.000000   -0.000042

siesta: Pressure (static):       1252.08038755  kBar

siesta: Stress tensor (total) (eV/Ang**3):
        -0.435666    0.000849    0.000000
         0.000849   -1.908729    0.000000
         0.000000    0.000000   -0.000042

siesta: Pressure (total):       1252.08038755  kBar

siesta: Temp_ion =       0.000 K

* Maximum dynamic memory allocated =   145 MB
Computing bands...

siesta: Program's energy decomposition (eV):
siesta: Ebs     =     -5026.171017
siesta: Eions   =     21617.947954
siesta: Ena     =      4927.511425
siesta: Ekin    =     11099.823579
siesta: Enl     =     -1607.423539
siesta: DEna    =      -779.728281
siesta: DUscf   =       110.358247
siesta: DUext   =         0.000000
siesta: Exc     =     -4839.096671
siesta: eta*DQ  =         0.000000
siesta: Emadel  =         0.000000
siesta: Emeta   =         0.000000
siesta: Emolmec =         0.000000
siesta: Ekinion =         0.000000
siesta: Eharris =    -12706.496775
siesta: Etot    =    -12706.503195
siesta: FreeEng =    -12706.539324

siesta: Final energy (eV):
siesta:  Band Struct. =   -5026.171017
siesta:       Kinetic =   11099.823579
siesta:       Hartree =   35643.724564
siesta:    Ext. field =       0.000000
siesta:   Exch.-corr. =   -4839.096671
siesta:  Ion-electron =  -81910.777252
siesta:       Ion-ion =   27299.822584
siesta:       Ekinion =       0.000000
siesta:         Total =  -12706.503195

siesta: Atomic forces (eV/Ang):
siesta:      1   -0.203773 -119.423128    0.000000
siesta:      2   13.596252  675.119931    0.000000
siesta:      3   32.264335   -9.226890    0.000000
siesta:      4  -11.356625  675.003492    0.000000
siesta:      5  -33.244760   -8.119914    0.000000
siesta:      6    1.358368  691.916850    0.000000
siesta:      7    0.360525   -7.134959    0.000000
siesta:      8    0.871592    0.308508    0.000000
siesta:      9    0.798110    0.365295    0.000000
siesta:     10    0.525344   -1.867234    0.000000
siesta:     11   -1.609829    0.614597    0.000000
siesta:     12   -1.553061    0.445562    0.000000
siesta:     13   -1.459308   -3.490751    0.000000
siesta:     14    1.432346    1.715534    0.000000
siesta:     15    1.067074   -1.749758    0.000000
siesta:     16    1.564270    3.030168    0.000000
siesta:     17    1.590006   -2.954722    0.000000
siesta:     18   -1.471076    3.233264    0.000000
siesta:     19    0.311845    2.326713    0.000000
siesta:     20    0.274599    1.853253    0.000000
siesta:     21   -0.791110  545.970159    0.000000
siesta:     22   -0.503948 -128.152980    0.000000
siesta:     23    0.047928  116.403023    0.000000
siesta:     24  -12.164993 -654.757097    0.000000
siesta:     25    0.419669  116.490816    0.000000
siesta:     26   10.243888 -653.674249    0.000000
siesta:     27   26.092373    5.346807    0.000000
siesta:     28   35.158553 -549.254917    0.000000
siesta:     29    2.756860   -0.087150    0.000000
siesta:     30   -3.091888    2.122591    0.000000
siesta:     31    1.941721    2.202990    0.000000
siesta:     32   -1.827694    0.355369    0.000000
siesta:     33  -25.997649    6.539370    0.000000
siesta:     34  -35.699214 -549.675780    0.000000
siesta:     35   13.545674  547.219012    0.000000
siesta:     36   -2.739058 -125.127408    0.000000
siesta:     37   32.351644  547.982338    0.000000
siesta:     38   26.728948   -9.007086    0.000000
siesta:     39   -2.133905   -1.790316    0.000000
siesta:     40    1.678579   -0.346488    0.000000
siesta:     41   -1.507614   -0.330001    0.000000
siesta:     42    1.803138   -2.222887    0.000000
siesta:     43   -0.179805    7.317218    0.000000
siesta:     44   -0.241226   -7.318906    0.000000
siesta:     45  -14.322689  548.192434    0.000000
siesta:     46    3.037485 -125.266906    0.000000
siesta:     47   -0.382731  535.243043    0.000000
siesta:     48   -1.582644    3.391695    0.000000
siesta:     49   -1.069904   -1.071805    0.000000
siesta:     50   -0.088368    0.881413    0.000000
siesta:     51   -0.366519   -0.878806    0.000000
siesta:     52  -32.279215  548.400139    0.000000
siesta:     53  -26.659589   -9.387981    0.000000
siesta:     54    1.895009   -1.006763    0.000000
siesta:     55   -0.394844    0.114515    0.000000
siesta:     56    1.172592    2.749122    0.000000
siesta:     57   -1.162583    2.764210    0.000000
siesta:     58   -0.868849   -2.472109    0.000000
siesta:     59   -0.486168    0.872145    0.000000
siesta:     60   -2.226778   -3.516249    0.000000
siesta:     61    0.994342 -564.585871    0.000000
siesta:     62    1.974017   -2.832600    0.000000
siesta:     63   22.860125    6.242872    0.000000
siesta:     64   22.829224 -559.415353    0.000000
siesta:     65  -23.621925    5.024241    0.000000
siesta:     66  -20.670124 -559.964717    0.000000
siesta:     67   -1.160345   -0.485294    0.000000
siesta:     68    2.522158    1.116826    0.000000
siesta:     69   -0.376455  128.170987    0.000000
siesta:     70    0.108876 -544.598942    0.000000
siesta:     71   -0.598913  112.190138    0.000000
siesta:     72    0.039541 -638.035255    0.000000
siesta: ----------------------------------------
siesta:    Tot    0.121828    0.005363    0.000000

siesta: Stress tensor (static) (eV/Ang**3):
siesta:    -0.435666    0.000849    0.000000
siesta:     0.000849   -1.908729    0.000000
siesta:     0.000000    0.000000   -0.000042

siesta: Cell volume =       1893.226884 Ang**3

siesta: Pressure (static):
siesta:                Solid            Molecule  Units
siesta:           0.00851130          0.13542602  Ry/Bohr**3
siesta:           0.78147866         12.43435684  eV/Ang**3
siesta:        1252.08038755      19922.25132927  kBar
(Free)E+ p_basis*V_orbitals  =      -12678.660978
(Free)Eharris+ p_basis*V_orbitals  =      -12678.647742

siesta: Electric dipole (a.u.)  =    0.000000    0.000000    0.000000
siesta: Electric dipole (Debye) =    0.000000    0.000000    0.000000

* Maximum dynamic memory allocated : Node    0 =   145 MB
* Maximum dynamic memory allocated : Node    1 =    58 MB
* Maximum dynamic memory allocated : Node    2 =    60 MB
* Maximum dynamic memory allocated : Node    3 =   132 MB
* Maximum dynamic memory allocated : Node    4 =   144 MB
* Maximum dynamic memory allocated : Node    5 =    53 MB
* Maximum dynamic memory allocated : Node    6 =    54 MB
* Maximum dynamic memory allocated : Node    7 =   136 MB
* Maximum dynamic memory allocated : Node    8 =   123 MB
* Maximum dynamic memory allocated : Node    9 =    50 MB
* Maximum dynamic memory allocated : Node   10 =    52 MB
* Maximum dynamic memory allocated : Node   11 =   118 MB

* Maximum memory occured during matrixMtoO                    

timer: CPU execution times:
timer:  Routine       Calls   Time/call    Tot.time        %
timer:  siesta            1  106679.827  106679.827   100.00
timer:  Setup             1       3.376       3.376     0.00
timer:  bands             3     227.231     681.694     0.64
timer:  writewave         1       0.024       0.024     0.00
timer:  KSV_init          1       0.006       0.006     0.00
timer:  IterMD            1  105987.773  105987.773    99.35
timer:  hsparse           1       0.161       0.161     0.00
timer:  overlap           1       8.018       8.018     0.01
timer:  IterSCF          36    2940.753  105867.111    99.24
timer:  kinefsm           2       4.058       8.115     0.01
timer:  nlefsm            2      18.351      36.702     0.03
timer:  DHSCF            37      59.593    2204.956     2.07
timer:  DHSCF1            1       0.902       0.902     0.00
timer:  DHSCF2            1      24.558      24.558     0.02
timer:  REORD           298       0.002       0.663     0.00
timer:  POISON           38       0.451      17.136     0.02
timer:  DHSCF3           37      58.354    2159.083     2.02
timer:  rhoofd           37      11.867     439.092     0.41
timer:  cellXC           37       2.497      92.398     0.09
timer:  vmat             37      27.389    1013.393     0.95
timer:  MolMec            2       0.000       0.001     0.00
timer:  diagon           36    2879.878  103675.615    97.18
timer:  c-eigval       8437       5.602   47265.938    44.31
timer:  c-buildHS      8437       0.032     273.812     0.26
timer:  cdiag         16753       5.713   95709.790    89.72
timer:  cdiag1        16753       0.261    4376.839     4.10
timer:  cdiag2        16753       1.838   30788.310    28.86
timer:  cdiag3        16753       3.395   56873.412    53.31
timer:  cdiag4        16753       0.089    1484.798     1.39
timer:  c-eigvec       8316       5.886   48944.582    45.88
timer:  c-buildD       8316       0.974    8101.752     7.59
timer:  DHSCF4            1      20.163      20.163     0.02
timer:  dfscf             1      18.757      18.757     0.02
timer:  overfsm           1       0.284       0.284     0.00
timer:  optical           1       6.373       6.373     0.01
  

elaps: ELAPSED times:
elaps:  Routine       Calls   Time/call    Tot.time        %
elaps:  siesta            1    8910.887    8910.887   100.00
elaps:  Setup             1       0.282       0.282     0.00
elaps:  bands             3      18.996      56.988     0.64
elaps:  writewave         1       0.002       0.002     0.00
elaps:  KSV_init          1       0.000       0.000     0.00
elaps:  IterMD            1    8853.081    8853.081    99.35
elaps:  hsparse           1       0.017       0.017     0.00
elaps:  overlap           1       0.713       0.713     0.01
elaps:  IterSCF          36     245.639    8843.001    99.24
elaps:  kinefsm           2       0.365       0.729     0.01
elaps:  nlefsm            2       1.685       3.371     0.04
elaps:  DHSCF            37       5.024     185.891     2.09
elaps:  DHSCF1            1       0.077       0.077     0.00
elaps:  DHSCF2            1       2.050       2.050     0.02
elaps:  REORD           298       0.000       0.090     0.00
elaps:  POISON           38       0.038       1.444     0.02
elaps:  DHSCF3           37       4.874     180.352     2.02
elaps:  rhoofd           37       2.173      80.408     0.90
elaps:  cellXC           37       0.208       7.701     0.09
elaps:  vmat             37       2.288      84.654     0.95
elaps:  MolMec            2       0.000       0.000     0.00
elaps:  diagon           36     240.562    8660.222    97.19
elaps:  c-eigval       8437       0.468    3948.039    44.31
elaps:  c-buildHS      8437       0.004      29.851     0.33
elaps:  cdiag         16753       0.472    7903.775    88.70
elaps:  cdiag1        16753       0.021     359.064     4.03
elaps:  cdiag2        16753       0.154    2574.087    28.89
elaps:  cdiag3        16753       0.284    4757.902    53.39
elaps:  cdiag4        16753       0.007     118.251     1.33
elaps:  c-eigvec       8316       0.482    4010.592    45.01
elaps:  c-buildD       8316       0.091     754.284     8.46
elaps:  DHSCF4            1       3.369       3.369     0.04
elaps:  dfscf             1       3.182       3.182     0.04
elaps:  overfsm           1       0.032       0.032     0.00
elaps:  optical           1       0.000       0.000     0.00
  
>> End of run:  28-APR-2016  23:33:24
