Siesta Version:                                        siesta-3.2-pl-3
Architecture  : x86_64-unknown-linux-gnu--unknown
Compiler flags: mpiifort -g -O2 -fPIC -xSSE4.1 -fp-model source -shared-intel 
PARALLEL version

* Running on   12 nodes in parallel
>> Start of run:   7-MAY-2016   8:32:44

                           ***********************       
                           *  WELCOME TO SIESTA  *       
                           ***********************       

reinit: Reading from standard input
************************** Dump of input data file ****************************
#(1) General system descriptors
SystemName            GRP_doping    # Descriptive name of the system
SystemLabel           GRP_doping    # Short name for naming files
%include STRUCT.fdf
%include KPT.fdf
%include BASIS.fdf
#%include TS.fdf # for transiesta calculation
#(4) DFT, Grid, SCF
XC.functional         GGA           # LDA or GGA (default = LDA)
XC.authors            PBE           # CA (Ceperley-Aldr) = PZ
                                    #    (Perdew-Zunger) - LDA - Default
                                    # PW92 (Perdew-Wang-92) - LDA
                                    # PBE (Perdew-Burke-Ernzerhof) - GGA
MeshCutoff            200.000000    Ry      # Default: 50.0 Ry ~ 0.444 Bohr
                                    #         100.0 Ry ~ 0.314 Bohr
MaxSCFIterations      500           # Default: 50
DM.MixingWeight       0.05          # Default: 0.25
DM.NumberPulay        10            # Default: 0
DM.PulayOnFile        F             # SystemLabel.P1, SystemLabel.P2
DM.Tolerance          1.d-4         # Default: 1.d-4
DM.UseSaveDM          .true.        # because of the bug
SCFMustConverge       .true.
NeglNonOverlapInt     F             # Default: F
#(5) Eigenvalue problem: order-N or diagonalization
SolutionMethod        Diagon        # or Transiesta
ElectronicTemperature 300.0 K       # Default: 300.0 K
#(6) Molecular dynamics and relaxations
#MD.TypeOfRun          CG            # Type of dynamics:
#MD.VariableCell       F
#MD.NumCGsteps         0           # 0 for single-point / 100 for gopt
#MD.MaxCGDispl         0.2 Bohr      # Default: 0.2 Bohr
#MD.MaxForceTol        0.02 eV/Ang   # Default: 0.04 eV/Ang
#MD.MaxStressTol       1.0 GPa       # Default: 1.0 GPa
# Geometry Constraints
#%block GeometryConstraints
#	position from 1 to 44
#%endblock GeometryConstraints
BandLinesScale   pi/a
%block BandLines
 1   0.00000000  0.00000000  0.00000000
50   0.00000000  0.07809418  0.00000000
50   0.04509075  0.07809242  0.00000000
20   0.00000000  0.00000000  0.00000000
%endblock BandLines
************************** End of input data file *****************************

reinit: -----------------------------------------------------------------------
reinit: System Name: GRP_doping
reinit: -----------------------------------------------------------------------
reinit: System Label: GRP_doping                                                  
reinit: -----------------------------------------------------------------------

initatom: Reading input for the pseudopotentials and atomic orbitals ----------
 Species number:            1  Label: N Atomic number:           7
 Species number:            2  Label: C Atomic number:           6
Ground state valence configuration:   2s02  2p03
Reading pseudopotential information in formatted form from N.psf

Valence configuration for pseudopotential generation:
2s( 2.00) rc: 1.48
2p( 3.00) rc: 1.48
3d( 0.00) rc: 1.48
4f( 0.00) rc: 1.48
Ground state valence configuration:   2s02  2p02
Reading pseudopotential information in formatted form from C.psf

Valence configuration for pseudopotential generation:
2s( 2.00) rc: 1.54
2p( 2.00) rc: 1.54
3d( 0.00) rc: 1.54
4f( 0.00) rc: 1.54
For N, standard SIESTA heuristics set lmxkb to 3
 (one more than the basis l, including polarization orbitals).
Use PS.lmax or PS.KBprojectors blocks to override.
For C, standard SIESTA heuristics set lmxkb to 3
 (one more than the basis l, including polarization orbitals).
Use PS.lmax or PS.KBprojectors blocks to override.

<basis_specs>
===============================================================================
N                    Z=   7    Mass=  14.010        Charge= 0.17977+309
Lmxo=1 Lmxkb= 3    BasisType=split      Semic=F
L=0  Nsemic=0  Cnfigmx=2
          n=1  nzeta=2  polorb=0
            splnorm:   0.15000    
               vcte:    0.0000    
               rinn:    0.0000    
                rcs:    0.0000      0.0000    
            lambdas:    1.0000      1.0000    
L=1  Nsemic=0  Cnfigmx=2
          n=1  nzeta=2  polorb=1
            splnorm:   0.15000    
               vcte:    0.0000    
               rinn:    0.0000    
                rcs:    0.0000      0.0000    
            lambdas:    1.0000      1.0000    
-------------------------------------------------------------------------------
L=0  Nkbl=1  erefs: 0.17977+309
L=1  Nkbl=1  erefs: 0.17977+309
L=2  Nkbl=1  erefs: 0.17977+309
L=3  Nkbl=1  erefs: 0.17977+309
===============================================================================
</basis_specs>

atom: Called for N                     (Z =   7)

read_vps: Pseudopotential generation method:
read_vps: ATM3      Troullier-Martins                       
Total valence charge:    5.00000

read_vps: Pseudopotential includes a core correction:
read_vps: Pseudo-core for xc-correction

xc_check: Exchange-correlation functional:
xc_check: GGA Perdew, Burke & Ernzerhof 1996
V l=0 = -2*Zval/r beyond r=  1.4606
V l=1 = -2*Zval/r beyond r=  1.4606
V l=2 = -2*Zval/r beyond r=  1.4606
V l=3 = -2*Zval/r beyond r=  1.4606
All V_l potentials equal beyond r=  1.4606
This should be close to max(r_c) in ps generation
All pots = -2*Zval/r beyond r=  1.4606

VLOCAL1: 99.0% of the norm of Vloc inside     20.347 Ry
VLOCAL1: 99.9% of the norm of Vloc inside     46.372 Ry
atom: Maximum radius for 4*pi*r*r*local-pseudopot. charge    1.76189
atom: Maximum radius for r*vlocal+2*Zval:    1.53550
GHOST: No ghost state for L =  0
GHOST: No ghost state for L =  1
GHOST: No ghost state for L =  2
GHOST: No ghost state for L =  3

KBgen: Kleinman-Bylander projectors: 
   l= 0   rc=  1.634559   el= -1.363963   Ekb=  5.296955   kbcos=  0.335621
   l= 1   rc=  1.614250   el= -0.521451   Ekb= -5.259161   kbcos= -0.433408
   l= 2   rc=  1.718383   el=  0.001991   Ekb= -1.271464   kbcos= -0.007566
   l= 3   rc=  1.761893   el=  0.003093   Ekb= -0.494769   kbcos= -0.001015

KBgen: Total number of  Kleinman-Bylander projectors:   16
atom: -------------------------------------------------------------------------

atom: SANKEY-TYPE ORBITALS:
atom: Selected multiple-zeta basis: split     

SPLIT: Orbitals with angular momentum L= 0

SPLIT: Basis orbitals for state 2s

SPLIT: PAO cut-off radius determined from an
SPLIT: energy shift=  0.007350 Ry

   izeta = 1
                 lambda =    1.000000
                     rc =    4.071465
                 energy =   -1.356470
                kinetic =    1.176977
    potential(screened) =   -2.533447
       potential(ionic) =   -8.057990

   izeta = 2
                 rmatch =    2.905100
              splitnorm =    0.150000
                 energy =   -1.158343
                kinetic =    1.813009
    potential(screened) =   -2.971352
       potential(ionic) =   -8.901931

SPLIT: Orbitals with angular momentum L= 1

SPLIT: Basis orbitals for state 2p

SPLIT: PAO cut-off radius determined from an
SPLIT: energy shift=  0.007350 Ry

   izeta = 1
                 lambda =    1.000000
                     rc =    4.972977
                 energy =   -0.513884
                kinetic =    3.441732
    potential(screened) =   -3.955616
       potential(ionic) =   -9.287901

   izeta = 2
                 rmatch =    3.054066
              splitnorm =    0.150000
                 energy =   -0.318226
                kinetic =    5.125348
    potential(screened) =   -5.443573
       potential(ionic) =  -11.380999

POLgen: Perturbative polarization orbital with L=  2

POLgen: Polarization orbital for state 2p

   izeta = 1
                     rc =    4.972977
                 energy =    1.607437
                kinetic =    3.268125
    potential(screened) =   -1.660688
       potential(ionic) =   -5.973652
atom: Total number of Sankey-type orbitals: 13

atm_pop: Valence configuration (for local Pseudopot. screening):
 2s( 2.00)                                                            
 2p( 3.00)                                                            
Vna: chval, zval:    5.00000   5.00000

Vna:  Cut-off radius for the neutral-atom potential:   4.972977
comcore: Pseudo-core radius Rcore=  1.554824

atom: _________________________________________________________________________

<basis_specs>
===============================================================================
C                    Z=   6    Mass=  12.010        Charge= 0.17977+309
Lmxo=1 Lmxkb= 3    BasisType=split      Semic=F
L=0  Nsemic=0  Cnfigmx=2
          n=1  nzeta=2  polorb=0
            splnorm:   0.15000    
               vcte:    0.0000    
               rinn:    0.0000    
                rcs:    0.0000      0.0000    
            lambdas:    1.0000      1.0000    
L=1  Nsemic=0  Cnfigmx=2
          n=1  nzeta=2  polorb=1
            splnorm:   0.15000    
               vcte:    0.0000    
               rinn:    0.0000    
                rcs:    0.0000      0.0000    
            lambdas:    1.0000      1.0000    
-------------------------------------------------------------------------------
L=0  Nkbl=1  erefs: 0.17977+309
L=1  Nkbl=1  erefs: 0.17977+309
L=2  Nkbl=1  erefs: 0.17977+309
L=3  Nkbl=1  erefs: 0.17977+309
===============================================================================
</basis_specs>

atom: Called for C                     (Z =   6)

read_vps: Pseudopotential generation method:
read_vps: ATM3      Troullier-Martins                       
Total valence charge:    4.00000

read_vps: Pseudopotential includes a core correction:
read_vps: Pseudo-core for xc-correction

xc_check: Exchange-correlation functional:
xc_check: GGA Perdew, Burke & Ernzerhof 1996
V l=0 = -2*Zval/r beyond r=  1.5227
V l=1 = -2*Zval/r beyond r=  1.5227
V l=2 = -2*Zval/r beyond r=  1.5227
V l=3 = -2*Zval/r beyond r=  1.5038
All V_l potentials equal beyond r=  1.5227
This should be close to max(r_c) in ps generation
All pots = -2*Zval/r beyond r=  1.5227

VLOCAL1: 99.0% of the norm of Vloc inside     18.722 Ry
VLOCAL1: 99.9% of the norm of Vloc inside     42.668 Ry
atom: Maximum radius for 4*pi*r*r*local-pseudopot. charge    1.83678
atom: Maximum radius for r*vlocal+2*Zval:    1.58088
GHOST: No ghost state for L =  0
GHOST: No ghost state for L =  1
GHOST: No ghost state for L =  2
GHOST: No ghost state for L =  3

KBgen: Kleinman-Bylander projectors: 
   l= 0   rc=  1.704034   el= -1.009801   Ekb=  5.335044   kbcos=  0.316824
   l= 1   rc=  1.704034   el= -0.388707   Ekb= -3.785862   kbcos= -0.366464
   l= 2   rc=  1.791422   el=  0.001971   Ekb= -0.970471   kbcos= -0.009212
   l= 3   rc=  1.859892   el=  0.003065   Ekb= -0.399525   kbcos= -0.001223

KBgen: Total number of  Kleinman-Bylander projectors:   16
atom: -------------------------------------------------------------------------

atom: SANKEY-TYPE ORBITALS:
atom: Selected multiple-zeta basis: split     

SPLIT: Orbitals with angular momentum L= 0

SPLIT: Basis orbitals for state 2s

SPLIT: PAO cut-off radius determined from an
SPLIT: energy shift=  0.007350 Ry

   izeta = 1
                 lambda =    1.000000
                     rc =    4.632753
                 energy =   -1.002270
                kinetic =    0.855760
    potential(screened) =   -1.858031
       potential(ionic) =   -5.417575

   izeta = 2
                 rmatch =    3.431921
              splitnorm =    0.150000
                 energy =   -0.867111
                kinetic =    1.300804
    potential(screened) =   -2.167915
       potential(ionic) =   -5.962684

SPLIT: Orbitals with angular momentum L= 1

SPLIT: Basis orbitals for state 2p

SPLIT: PAO cut-off radius determined from an
SPLIT: energy shift=  0.007350 Ry

   izeta = 1
                 lambda =    1.000000
                     rc =    5.658549
                 energy =   -0.381140
                kinetic =    2.399701
    potential(screened) =   -2.780841
       potential(ionic) =   -6.206085

   izeta = 2
                 rmatch =    3.653288
              splitnorm =    0.150000
                 energy =   -0.249149
                kinetic =    3.542762
    potential(screened) =   -3.791911
       potential(ionic) =   -7.581078

POLgen: Perturbative polarization orbital with L=  2

POLgen: Polarization orbital for state 2p

   izeta = 1
                     rc =    5.658549
                 energy =    1.109913
                kinetic =    2.304789
    potential(screened) =   -1.194876
       potential(ionic) =   -4.013592
atom: Total number of Sankey-type orbitals: 13

atm_pop: Valence configuration (for local Pseudopot. screening):
 2s( 2.00)                                                            
 2p( 2.00)                                                            
Vna: chval, zval:    4.00000   4.00000

Vna:  Cut-off radius for the neutral-atom potential:   5.658549
comcore: Pseudo-core radius Rcore=  1.791422

atom: _________________________________________________________________________

prinput: Basis input ----------------------------------------------------------

PAO.BasisType split     

%block ChemicalSpeciesLabel
    1    7 N                       # Species index, atomic number, species label
    2    6 C                       # Species index, atomic number, species label
%endblock ChemicalSpeciesLabel

%block PAO.Basis                 # Define Basis set
N                     2                    # Species label, number of l-shells
 n=2   0   2                         # n, l, Nzeta 
   4.071      2.905   
   1.000      1.000   
 n=2   1   2 P   1                   # n, l, Nzeta, Polarization, NzetaPol
   4.973      3.054   
   1.000      1.000   
C                     2                    # Species label, number of l-shells
 n=2   0   2                         # n, l, Nzeta 
   4.633      3.432   
   1.000      1.000   
 n=2   1   2 P   1                   # n, l, Nzeta, Polarization, NzetaPol
   5.659      3.653   
   1.000      1.000   
%endblock PAO.Basis

prinput: ----------------------------------------------------------------------

coor:   Atomic-coordinates input format  =     Fractional

siesta: Atomic coordinates (Bohr) and species
siesta:      9.28770  21.41544   0.00000  1        1
siesta:      6.95932  22.75985   0.00000  1        2
siesta:      2.30256  22.75985   0.00000  1        3
siesta:     -2.35420  22.75985   0.00000  1        4
siesta:     -9.33934  21.41544   0.00000  1        5
siesta:      4.63094  26.79272   0.00000  1        6
siesta:      2.30256  30.82560   0.00000  1        7
siesta:     -0.02582  37.54693   0.00000  1        8
siesta:     -0.02582   2.59549   0.00000  2        9
siesta:     -0.02582   5.28395   0.00000  2       10
siesta:     -2.35420  38.89134   0.00000  2       11
siesta:     -2.35420  41.57980   0.00000  2       12
siesta:      2.30256  38.89134   0.00000  2       13
siesta:      2.30256  41.57980   0.00000  2       14
siesta:      4.63094  34.85847   0.00000  2       15
siesta:      4.63094  37.54693   0.00000  2       16
siesta:      6.95932  30.82560   0.00000  2       17
siesta:      6.95932  33.51406   0.00000  2       18
siesta:      9.28770  26.79272   0.00000  2       19
siesta:      9.28770  29.48119   0.00000  2       20
siesta:     -4.68258  34.85847   0.00000  2       21
siesta:     -4.68258  37.54693   0.00000  2       22
siesta:      2.30256   6.62836   0.00000  2       23
siesta:      2.30256   9.31683   0.00000  2       24
siesta:      4.63094  10.66124   0.00000  2       25
siesta:      4.63094  13.34970   0.00000  2       26
siesta:      6.95932  14.69411   0.00000  2       27
siesta:      6.95932  17.38257   0.00000  2       28
siesta:      9.28770  18.72698   0.00000  2       29
siesta:     11.61608  22.75985   0.00000  2       30
siesta:     11.61608  25.44831   0.00000  2       31
siesta:     -2.35420   6.62836   0.00000  2       32
siesta:     -2.35420   9.31683   0.00000  2       33
siesta:     -0.02582  10.66124   0.00000  2       34
siesta:     -0.02582  13.34970   0.00000  2       35
siesta:      2.30256  14.69411   0.00000  2       36
siesta:      2.30256  17.38257   0.00000  2       37
siesta:      4.63094  18.72698   0.00000  2       38
siesta:      4.63094  21.41544   0.00000  2       39
siesta:      6.95932  25.44831   0.00000  2       40
siesta:     -4.68258  10.66124   0.00000  2       41
siesta:     -4.68258  13.34970   0.00000  2       42
siesta:     -2.35420  14.69411   0.00000  2       43
siesta:     -2.35420  17.38257   0.00000  2       44
siesta:     -0.02582  18.72698   0.00000  2       45
siesta:     -0.02582  21.41544   0.00000  2       46
siesta:      2.30256  25.44831   0.00000  2       47
siesta:     -7.01096  14.69411   0.00000  2       48
siesta:     -7.01096  17.38257   0.00000  2       49
siesta:     -4.68258  18.72698   0.00000  2       50
siesta:     -4.68258  21.41544   0.00000  2       51
siesta:     -2.35420  25.44831   0.00000  2       52
siesta:     -9.33934  18.72698   0.00000  2       53
siesta:     -7.01096  22.75985   0.00000  2       54
siesta:     -7.01096  25.44831   0.00000  2       55
siesta:    -11.66772  22.75985   0.00000  2       56
siesta:    -11.66772  25.44831   0.00000  2       57
siesta:     -9.33934  26.79272   0.00000  2       58
siesta:     -9.33934  29.48119   0.00000  2       59
siesta:      4.63094  29.48119   0.00000  2       60
siesta:     -0.02582  26.79272   0.00000  2       61
siesta:     -0.02582  29.48119   0.00000  2       62
siesta:     -4.68258  26.79272   0.00000  2       63
siesta:     -4.68258  29.48119   0.00000  2       64
siesta:      2.30256  33.51406   0.00000  2       65
siesta:     -2.35420  30.82560   0.00000  2       66
siesta:     -2.35420  33.51406   0.00000  2       67
siesta:     -7.01096  30.82560   0.00000  2       68
siesta:     -7.01096  33.51406   0.00000  2       69
siesta:     -0.02582  34.85847   0.00000  2       70
siesta:     -0.02582  42.92421   0.00000  2       71
siesta:     -0.02582  45.61267   0.00000  2       72

siesta: System type = slab      

initatomlists: Number of atoms, orbitals, and projectors:     72   936  1152

siesta: ******************** Simulation parameters ****************************
siesta:
siesta: The following are some of the parameters of the simulation.
siesta: A complete list of the parameters used, including default values,
siesta: can be found in file out.fdf
siesta:
redata: Non-Collinear-spin run           =     F
redata: SpinPolarized (Up/Down) run      =     F
redata: Number of spin components        =     1
redata: Long output                      =     F
redata: Number of Atomic Species         =        2
redata: Charge density info will appear in .RHO file
redata: Write Mulliken Pop.              =     NO
redata: Mesh Cutoff                      =   200.0000  Ry
redata: Net charge of the system         =     0.0000 |e|
redata: Max. number of SCF Iter          =      500
redata: SCF convergence failure will abort job
redata: Performing Pulay mixing using    =    10 iterations
redata: Mix DM in first SCF step ?       =     F
redata: Write Pulay info on disk?        =     F
redata: Discard 1st Pulay DM after  kick =     F
redata: New DM Mixing Weight             =     0.0500
redata: New DM Occupancy tolerance       = 0.000000000001
redata: No kicks to SCF
redata: DM Mixing Weight for Kicks       =     0.5000
redata: DM Tolerance for SCF             =     0.000100
redata: Require Energy convergence for SCF =     F
redata: DM Energy tolerance for SCF      =     0.000100 eV
redata: Require Harris convergence for SCF =     F
redata: DM Harris energy tolerance for SCF =     0.000100 eV
redata: Using Saved Data (generic)   =     F
redata: Use continuation files for DM    =     T
redata: Neglect nonoverlap interactions  =     F
redata: Method of Calculation            =     Diagonalization
redata: Divide and Conquer               =     T
redata: Electronic Temperature           =     0.0019  Ry
redata: Fix the spin of the system       =     F
redata: Dynamics option                  =     Verlet MD run
redata: Initial MD time step             =        1
redata:   Final MD time step             =        1
redata: Length of MD time step           =     1.0000  fs
redata: Initial Temperature of MD run    =     0.0000  K
redata: Perform a MD quench              =     F
redata: ***********************************************************************
Total number of electrons:   296.000000
Total ionic charge:   296.000000

* ProcessorY, Blocksize:    3  24

k-point displ. along   1 input, could be:     0.50    0.00
k-point displ. along   2 input, could be:     0.50    0.00
 Kpoints in:          231 . Kpoints trimmed:          231

siesta: k-grid: Number of k-points =   231
siesta: k-grid: Cutoff (effective) =     5.000 Ang
siesta: k-grid: Supercell and displacements
siesta: k-grid:   21   0   0      0.500
siesta: k-grid:    0  21   0      0.500
siesta: k-grid:    0   0   1      0.000
Naive supercell factors:     2    2    2

superc: Internal auxiliary supercell:     2 x     2 x     2  =       8
superc: Number of atoms, orbitals, and projectors:    576   7488   9216

* Maximum dynamic memory allocated =     4 MB

siesta:                 ==============================
                            Begin MD step =      1
                        ==============================

superc: Internal auxiliary supercell:     2 x     2 x     2  =       8
superc: Number of atoms, orbitals, and projectors:    576   7488   9216

outcell: Unit cell vectors (Ang):
       12.804619    7.392750    0.000000
        0.000000   14.785500    0.000000
        0.000000    0.000000   10.000000

outcell: Cell vector modules (Ang)   :   14.785500   14.785500   10.000000
outcell: Cell angles (23,13,12) (deg):     90.0000     90.0000     60.0000
outcell: Cell volume (Ang**3)        :   1893.2269
New_DM. Step:     1
Initializing Density Matrix...

InitMesh: MESH =   120 x   120 x    90 =     1296000
InitMesh: Mesh cutoff (required, used) =   200.000   223.865 Ry

* Maximum dynamic memory allocated =   137 MB

stepf: Fermi-Dirac step function

siesta: Program's energy decomposition (eV):
siesta: Ebs     =     -6019.250639
siesta: Eions   =     19688.985824
siesta: Ena     =      4798.291575
siesta: Ekin    =      7049.557044
siesta: Enl     =       397.102243
siesta: DEna    =        -0.000015
siesta: DUscf   =         0.000000
siesta: DUext   =         0.000000
siesta: Exc     =     -4365.733751
siesta: eta*DQ  =         0.000000
siesta: Emadel  =         0.000000
siesta: Emeta   =         0.000000
siesta: Emolmec =         0.000000
siesta: Ekinion =         0.000000
siesta: Eharris =    -11476.779116
siesta: Etot    =    -11809.768728
siesta: FreeEng =    -11809.768728

siesta: iscf   Eharris(eV)      E_KS(eV)   FreeEng(eV)   dDmax  Ef(eV)
siesta:    1   -11476.7791   -11809.7687   -11809.7687  5.8981 -7.2377
timer: Routine,Calls,Time,% = IterSCF        1    2996.797  99.60
elaps: Routine,Calls,Wall,% = IterSCF        1     250.328  99.59
siesta:    2   -16061.2430   -10825.0633   -10825.0939 13.1682 -4.0353
siesta:    3   -11442.2564   -11581.2184   -11581.2760  2.3913 -4.6858
siesta:    4   -11404.2360   -11470.8594   -11470.9162  1.1866 -3.9254
siesta:    5   -11352.1332   -11433.9193   -11433.9516  0.8753 -4.2638
siesta:    6   -11332.8254   -11384.5770   -11384.5989  0.7642 -3.9093
siesta:    7   -11328.9223   -11372.0825   -11372.1282  0.6590 -4.0187
siesta:    8   -11325.2709   -11364.3888   -11364.4625  0.5833 -4.1604
siesta:    9   -11323.5483   -11353.0127   -11353.0815  0.4858 -4.2370
siesta:   10   -11322.7364   -11341.4859   -11341.5509  0.5320 -4.1248
siesta:   11   -11324.1502   -11318.8744   -11318.9366  0.3084 -4.1722
siesta:   12   -11323.5452   -11312.9498   -11313.0161  0.3169 -4.0538
siesta:   13   -11322.6956   -11306.2435   -11306.2978  0.2557 -4.1290
siesta:   14   -11322.5147   -11308.0041   -11308.0877  0.1860 -4.1233
siesta:   15   -11321.9569   -11309.2587   -11309.3499  0.2052 -4.1400
siesta:   16   -11321.5207   -11312.0106   -11312.0532  0.1677 -4.1602
siesta:   17   -11321.3938   -11313.8147   -11313.8770  0.1284 -4.1582
siesta:   18   -11321.3295   -11315.1988   -11315.2744  0.0900 -4.1701
siesta:   19   -11321.2725   -11317.7831   -11317.8557  0.0519 -4.1813
siesta:   20   -11321.2419   -11318.5318   -11318.6088  0.0392 -4.1733
siesta:   21   -11321.2181   -11319.6726   -11319.7535  0.0286 -4.1605
siesta:   22   -11321.2102   -11320.6567   -11320.7399  0.0214 -4.1568
siesta:   23   -11321.2080   -11321.7184   -11321.8014  0.0199 -4.1544
siesta:   24   -11321.2072   -11321.9818   -11322.0641  0.0187 -4.1536
siesta:   25   -11321.2058   -11321.8015   -11321.8842  0.0153 -4.1519
siesta:   26   -11321.2041   -11321.9262   -11322.0088  0.0123 -4.1498
siesta:   27   -11321.2041   -11321.8424   -11321.9256  0.0109 -4.1495
siesta:   28   -11321.2036   -11321.7008   -11321.7837  0.0100 -4.1467
siesta:   29   -11321.2038   -11321.4354   -11321.5188  0.0069 -4.1466
siesta:   30   -11321.2036   -11321.3131   -11321.3961  0.0058 -4.1464
siesta:   31   -11321.2039   -11321.2150   -11321.2983  0.0040 -4.1475
siesta:   32   -11321.2038   -11321.2009   -11321.2837  0.0030 -4.1478
siesta:   33   -11321.2038   -11321.1483   -11321.2312  0.0014 -4.1481
siesta:   34   -11321.2038   -11321.1313   -11321.2142  0.0008 -4.1483
siesta:   35   -11321.2038   -11321.1487   -11321.2316  0.0007 -4.1484
siesta:   36   -11321.2038   -11321.1675   -11321.2504  0.0006 -4.1485
siesta:   37   -11321.2038   -11321.1645   -11321.2474  0.0004 -4.1486
siesta:   38   -11321.2038   -11321.1912   -11321.2741  0.0004 -4.1486
siesta:   39   -11321.2038   -11321.1855   -11321.2684  0.0002 -4.1486
siesta:   40   -11321.2038   -11321.1844   -11321.2672  0.0002 -4.1486
siesta:   41   -11321.2038   -11321.1954   -11321.2782  0.0001 -4.1486
siesta:   42   -11321.2038   -11321.2014   -11321.2842  0.0000 -4.1486

siesta: E_KS(eV) =           -11321.2003

siesta: E_KS - E_eggbox =    -11321.2003

siesta: Atomic forces (eV/Ang):
----------------------------------------
   Tot   -0.320384   -0.050315    0.000000
----------------------------------------
   Max  657.259634
   Res  165.605259    sqrt( Sum f_i^2 / 3N )
----------------------------------------
   Max  657.259634    constrained

Stress-tensor-Voigt (kbar):     -676.67    -2907.97       -0.11       -0.54        0.00        0.00
(Free)E + p*V (eV/cell)    -9909.3183
Target enthalpy (eV/cell)   -11321.2832

siesta: Stress tensor (static) (eV/Ang**3):
        -0.422337   -0.000338    0.000000
        -0.000338   -1.814991    0.000000
         0.000000    0.000000   -0.000066

siesta: Pressure (static):       1194.91305932  kBar

siesta: Stress tensor (total) (eV/Ang**3):
        -0.422337   -0.000338    0.000000
        -0.000338   -1.814991    0.000000
         0.000000    0.000000   -0.000066

siesta: Pressure (total):       1194.91305932  kBar

siesta: Temp_ion =       0.000 K

* Maximum dynamic memory allocated =   150 MB
Computing bands...

siesta: Program's energy decomposition (eV):
siesta: Ebs     =     -4786.393515
siesta: Eions   =     19688.985824
siesta: Ena     =      4798.291575
siesta: Ekin    =     10034.288840
siesta: Enl     =     -1268.547047
siesta: DEna    =      -766.297461
siesta: DUscf   =       102.324433
siesta: DUext   =         0.000000
siesta: Exc     =     -4532.274816
siesta: eta*DQ  =         0.000000
siesta: Emadel  =         0.000000
siesta: Emeta   =         0.000000
siesta: Emolmec =         0.000000
siesta: Ekinion =         0.000000
siesta: Eharris =    -11321.203819
siesta: Etot    =    -11321.200300
siesta: FreeEng =    -11321.283160

siesta: Final energy (eV):
siesta:  Band Struct. =   -4786.393515
siesta:       Kinetic =   10034.288840
siesta:       Hartree =   32562.917903
siesta:    Ext. field =       0.000000
siesta:   Exch.-corr. =   -4532.274816
siesta:  Ion-electron =  -74802.759566
siesta:       Ion-ion =   25416.627339
siesta:       Ekinion =       0.000000
siesta:         Total =  -11321.200300

siesta: Atomic forces (eV/Ang):
siesta:      1    2.517474   -2.926664    0.000000
siesta:      2   -2.957702    2.876167    0.000000
siesta:      3    1.421643    0.650141    0.000000
siesta:      4   -0.156524    0.895777    0.000000
siesta:      5   -0.815036   -1.686508    0.000000
siesta:      6   -0.766385   -1.120713    0.000000
siesta:      7   25.927483    3.425891    0.000000
siesta:      8    2.479669 -657.259634    0.000000
siesta:      9   10.943731  550.784949    0.000000
siesta:     10    2.669771 -124.629162    0.000000
siesta:     11    0.871406  128.727865    0.000000
siesta:     12  -15.099716 -547.753891    0.000000
siesta:     13   -0.348758  129.759857    0.000000
siesta:     14   15.270154 -548.613659    0.000000
siesta:     15   27.145901    5.960829    0.000000
siesta:     16   31.450877 -551.302063    0.000000
siesta:     17    0.795768   -0.377166    0.000000
siesta:     18   -2.531252    1.801425    0.000000
siesta:     19    0.887589    1.724937    0.000000
siesta:     20   -1.105611    0.257459    0.000000
siesta:     21  -27.174109    5.347577    0.000000
siesta:     22  -31.107407 -550.591778    0.000000
siesta:     23   12.858443  551.545536    0.000000
siesta:     24    0.488815 -126.831053    0.000000
siesta:     25   32.202397  550.835858    0.000000
siesta:     26   26.464883   -6.710045    0.000000
siesta:     27   -2.151729   -1.172988    0.000000
siesta:     28    1.248021   -0.000425    0.000000
siesta:     29    0.469115    1.615674    0.000000
siesta:     30   -1.566664    4.140070    0.000000
siesta:     31    0.059074   -6.153226    0.000000
siesta:     32  -11.653947  550.860165    0.000000
siesta:     33   -0.158038 -128.720304    0.000000
siesta:     34   -2.401684  655.985161    0.000000
siesta:     35    0.328037 -122.162589    0.000000
siesta:     36   20.245282  558.267245    0.000000
siesta:     37   22.383974   -4.836484    0.000000
siesta:     38   -1.833044    3.074962    0.000000
siesta:     39    0.235528    0.181906    0.000000
siesta:     40    0.200371   -1.138386    0.000000
siesta:     41  -32.233047  550.659777    0.000000
siesta:     42  -26.870583   -5.976580    0.000000
siesta:     43  -21.206785  558.072266    0.000000
siesta:     44  -22.207747   -5.058325    0.000000
siesta:     45    0.456647  565.705949    0.000000
siesta:     46   -0.197324    0.981639    0.000000
siesta:     47    0.240162    0.200897    0.000000
siesta:     48    2.484884   -1.753970    0.000000
siesta:     49   -1.546398    0.683105    0.000000
siesta:     50    1.901463    2.598712    0.000000
siesta:     51    0.339677   -0.147782    0.000000
siesta:     52   -0.512178   -1.211708    0.000000
siesta:     53   -0.153990    0.937767    0.000000
siesta:     54   -0.417928    0.653618    0.000000
siesta:     55   -0.488417   -1.022819    0.000000
siesta:     56    1.224671    5.154154    0.000000
siesta:     57    0.242338   -6.856203    0.000000
siesta:     58   -2.090372    2.079791    0.000000
siesta:     59    1.624180    0.229144    0.000000
siesta:     60   -0.281194   -2.914941    0.000000
siesta:     61    0.928826   -1.342922    0.000000
siesta:     62  -10.465771 -574.805025    0.000000
siesta:     63    0.362026   -0.211356    0.000000
siesta:     64    1.679323   -2.329124    0.000000
siesta:     65   14.341173 -556.398117    0.000000
siesta:     66  -23.362444    5.477969    0.000000
siesta:     67  -22.686996 -559.172777    0.000000
siesta:     68   -1.984401   -0.043428    0.000000
siesta:     69    2.784013    2.096800    0.000000
siesta:     70    0.166762  121.061078    0.000000
siesta:     71    0.190233  126.160849    0.000000
siesta:     72   -0.318989 -548.291468    0.000000
siesta: ----------------------------------------
siesta:    Tot   -0.320384   -0.050315    0.000000

siesta: Stress tensor (static) (eV/Ang**3):
siesta:    -0.422337   -0.000338    0.000000
siesta:    -0.000338   -1.814991    0.000000
siesta:     0.000000    0.000000   -0.000066

siesta: Cell volume =       1893.226884 Ang**3

siesta: Pressure (static):
siesta:                Solid            Molecule  Units
siesta:           0.00812269          0.12952509  Ry/Bohr**3
siesta:           0.74579801         11.89255323  eV/Ang**3
siesta:        1194.91305932      19054.17686031  kBar
(Free)E+ p_basis*V_orbitals  =      -11291.689250
(Free)Eharris+ p_basis*V_orbitals  =      -11291.691684

siesta: Electric dipole (a.u.)  =    0.000000    0.000000    0.000000
siesta: Electric dipole (Debye) =    0.000000    0.000000    0.000000

* Maximum dynamic memory allocated : Node    0 =   150 MB
* Maximum dynamic memory allocated : Node    1 =    60 MB
* Maximum dynamic memory allocated : Node    2 =    60 MB
* Maximum dynamic memory allocated : Node    3 =   137 MB
* Maximum dynamic memory allocated : Node    4 =   147 MB
* Maximum dynamic memory allocated : Node    5 =    54 MB
* Maximum dynamic memory allocated : Node    6 =    55 MB
* Maximum dynamic memory allocated : Node    7 =   140 MB
* Maximum dynamic memory allocated : Node    8 =   131 MB
* Maximum dynamic memory allocated : Node    9 =    53 MB
* Maximum dynamic memory allocated : Node   10 =    54 MB
* Maximum dynamic memory allocated : Node   11 =   126 MB

* Maximum memory occured during matrixMtoO                    

timer: CPU execution times:
timer:  Routine       Calls   Time/call    Tot.time        %
timer:  siesta            1  123241.975  123241.975   100.00
timer:  Setup             1       3.266       3.266     0.00
timer:  bands             3     226.215     678.645     0.55
timer:  writewave         1       0.021       0.021     0.00
timer:  KSV_init          1       0.004       0.004     0.00
timer:  IterMD            1  122553.213  122553.213    99.44
timer:  hsparse           1       0.167       0.167     0.00
timer:  overlap           1       5.992       5.992     0.00
timer:  IterSCF          42    2914.891  122425.441    99.34
timer:  kinefsm           2       3.044       6.087     0.00
timer:  nlefsm            2      18.864      37.729     0.03
timer:  DHSCF            43      63.848    2745.444     2.23
timer:  DHSCF1            1       0.899       0.899     0.00
timer:  DHSCF2            1      24.924      24.924     0.02
timer:  REORD           346       0.002       0.811     0.00
timer:  POISON           44       0.447      19.675     0.02
timer:  DHSCF3           43      62.735    2697.615     2.19
timer:  rhoofd           43      12.991     558.607     0.45
timer:  cellXC           43       2.426     104.303     0.08
timer:  vmat             43      29.612    1273.307     1.03
timer:  MolMec            2       0.000       0.000     0.00
timer:  diagon           42    2849.925  119696.849    97.12
timer:  c-eigval       9823       5.580   54811.270    44.47
timer:  c-buildHS      9823       0.033     327.262     0.27
timer:  cdiag         19525       5.672  110738.978    89.85
timer:  cdiag1        19525       0.261    5102.059     4.14
timer:  cdiag2        19525       1.832   35775.057    29.03
timer:  cdiag3        19525       3.379   65973.106    53.53
timer:  cdiag4        19525       0.087    1704.245     1.38
timer:  c-eigvec       9702       5.826   56526.819    45.87
timer:  c-buildD       9702       0.926    8983.760     7.29
timer:  DHSCF4            1      21.738      21.738     0.02
timer:  dfscf             1      20.296      20.296     0.02
timer:  overfsm           1       0.286       0.286     0.00
timer:  optical           1       6.252       6.252     0.01
  

elaps: ELAPSED times:
elaps:  Routine       Calls   Time/call    Tot.time        %
elaps:  siesta            1   10294.352   10294.352   100.00
elaps:  Setup             1       0.277       0.277     0.00
elaps:  bands             3      18.911      56.732     0.55
elaps:  writewave         1       0.002       0.002     0.00
elaps:  KSV_init          1       0.000       0.000     0.00
elaps:  IterMD            1   10236.816   10236.816    99.44
elaps:  hsparse           1       0.016       0.016     0.00
elaps:  overlap           1       0.712       0.712     0.01
elaps:  IterSCF          42     243.480   10226.144    99.34
elaps:  kinefsm           2       0.362       0.725     0.01
elaps:  nlefsm            2       1.600       3.200     0.03
elaps:  DHSCF            43       5.377     231.210     2.25
elaps:  DHSCF1            1       0.077       0.077     0.00
elaps:  DHSCF2            1       2.080       2.080     0.02
elaps:  REORD           346       0.000       0.104     0.00
elaps:  POISON           44       0.038       1.657     0.02
elaps:  DHSCF3           43       5.242     225.389     2.19
elaps:  rhoofd           43       2.323      99.883     0.97
elaps:  cellXC           43       0.202       8.694     0.08
elaps:  vmat             43       2.475     106.410     1.03
elaps:  MolMec            2       0.000       0.000     0.00
elaps:  diagon           42     238.057    9998.399    97.13
elaps:  c-eigval       9823       0.466    4578.296    44.47
elaps:  c-buildHS      9823       0.003      33.526     0.33
elaps:  cdiag         19525       0.470    9179.795    89.17
elaps:  cdiag1        19525       0.021     419.285     4.07
elaps:  cdiag2        19525       0.153    2990.985    29.05
elaps:  cdiag3        19525       0.283    5519.197    53.61
elaps:  cdiag4        19525       0.007     135.019     1.31
elaps:  c-eigvec       9702       0.481    4663.380    45.30
elaps:  c-buildD       9702       0.083     808.404     7.85
elaps:  DHSCF4            1       3.621       3.621     0.04
elaps:  dfscf             1       3.429       3.429     0.03
elaps:  overfsm           1       0.029       0.029     0.00
elaps:  optical           1       0.000       0.000     0.00
  
>> End of run:   7-MAY-2016  11:24:18
