Siesta Version:                                        siesta-3.2-pl-3
Architecture  : x86_64-unknown-linux-gnu--unknown
Compiler flags: mpiifort -g -O2 -fPIC -xSSE4.1 -fp-model source -shared-intel 
PARALLEL version

* Running on    8 nodes in parallel
>> Start of run:   2-MAY-2016   8:29:47

                           ***********************       
                           *  WELCOME TO SIESTA  *       
                           ***********************       

reinit: Reading from standard input
************************** Dump of input data file ****************************
#(1) General system descriptors
SystemName            GRP_doping    # Descriptive name of the system
SystemLabel           GRP_doping    # Short name for naming files
%include STRUCT.fdf
%include KPT.fdf
%include BASIS.fdf
#%include TS.fdf # for transiesta calculation
#(4) DFT, Grid, SCF
XC.functional         GGA           # LDA or GGA (default = LDA)
XC.authors            PBE           # CA (Ceperley-Aldr) = PZ
                                    #    (Perdew-Zunger) - LDA - Default
                                    # PW92 (Perdew-Wang-92) - LDA
                                    # PBE (Perdew-Burke-Ernzerhof) - GGA
MeshCutoff            200.000000    Ry      # Default: 50.0 Ry ~ 0.444 Bohr
                                    #         100.0 Ry ~ 0.314 Bohr
MaxSCFIterations      500           # Default: 50
DM.MixingWeight       0.05          # Default: 0.25
DM.NumberPulay        10            # Default: 0
DM.PulayOnFile        F             # SystemLabel.P1, SystemLabel.P2
DM.Tolerance          1.d-4         # Default: 1.d-4
DM.UseSaveDM          .true.        # because of the bug
SCFMustConverge       .true.
NeglNonOverlapInt     F             # Default: F
#(5) Eigenvalue problem: order-N or diagonalization
SolutionMethod        Diagon        # or Transiesta
ElectronicTemperature 300.0 K       # Default: 300.0 K
#(6) Molecular dynamics and relaxations
#MD.TypeOfRun          CG            # Type of dynamics:
#MD.VariableCell       F
#MD.NumCGsteps         0           # 0 for single-point / 100 for gopt
#MD.MaxCGDispl         0.2 Bohr      # Default: 0.2 Bohr
#MD.MaxForceTol        0.02 eV/Ang   # Default: 0.04 eV/Ang
#MD.MaxStressTol       1.0 GPa       # Default: 1.0 GPa
# Geometry Constraints
#%block GeometryConstraints
#	position from 1 to 44
#%endblock GeometryConstraints
BandLinesScale   pi/a
%block BandLines
 1   0.00000000  0.00000000  0.00000000
50   0.00000000  0.07809418  0.00000000
50   0.04509075  0.07809242  0.00000000
20   0.00000000  0.00000000  0.00000000
%endblock BandLines
************************** End of input data file *****************************

reinit: -----------------------------------------------------------------------
reinit: System Name: GRP_doping
reinit: -----------------------------------------------------------------------
reinit: System Label: GRP_doping                                                  
reinit: -----------------------------------------------------------------------

initatom: Reading input for the pseudopotentials and atomic orbitals ----------
 Species number:            1  Label: N Atomic number:           7
 Species number:            2  Label: C Atomic number:           6
Ground state valence configuration:   2s02  2p03
Reading pseudopotential information in formatted form from N.psf

Valence configuration for pseudopotential generation:
2s( 2.00) rc: 1.48
2p( 3.00) rc: 1.48
3d( 0.00) rc: 1.48
4f( 0.00) rc: 1.48
Ground state valence configuration:   2s02  2p02
Reading pseudopotential information in formatted form from C.psf

Valence configuration for pseudopotential generation:
2s( 2.00) rc: 1.54
2p( 2.00) rc: 1.54
3d( 0.00) rc: 1.54
4f( 0.00) rc: 1.54
For N, standard SIESTA heuristics set lmxkb to 3
 (one more than the basis l, including polarization orbitals).
Use PS.lmax or PS.KBprojectors blocks to override.
For C, standard SIESTA heuristics set lmxkb to 3
 (one more than the basis l, including polarization orbitals).
Use PS.lmax or PS.KBprojectors blocks to override.

<basis_specs>
===============================================================================
N                    Z=   7    Mass=  14.010        Charge= 0.17977+309
Lmxo=1 Lmxkb= 3    BasisType=split      Semic=F
L=0  Nsemic=0  Cnfigmx=2
          n=1  nzeta=2  polorb=0
            splnorm:   0.15000    
               vcte:    0.0000    
               rinn:    0.0000    
                rcs:    0.0000      0.0000    
            lambdas:    1.0000      1.0000    
L=1  Nsemic=0  Cnfigmx=2
          n=1  nzeta=2  polorb=1
            splnorm:   0.15000    
               vcte:    0.0000    
               rinn:    0.0000    
                rcs:    0.0000      0.0000    
            lambdas:    1.0000      1.0000    
-------------------------------------------------------------------------------
L=0  Nkbl=1  erefs: 0.17977+309
L=1  Nkbl=1  erefs: 0.17977+309
L=2  Nkbl=1  erefs: 0.17977+309
L=3  Nkbl=1  erefs: 0.17977+309
===============================================================================
</basis_specs>

atom: Called for N                     (Z =   7)

read_vps: Pseudopotential generation method:
read_vps: ATM3      Troullier-Martins                       
Total valence charge:    5.00000

read_vps: Pseudopotential includes a core correction:
read_vps: Pseudo-core for xc-correction

xc_check: Exchange-correlation functional:
xc_check: GGA Perdew, Burke & Ernzerhof 1996
V l=0 = -2*Zval/r beyond r=  1.4606
V l=1 = -2*Zval/r beyond r=  1.4606
V l=2 = -2*Zval/r beyond r=  1.4606
V l=3 = -2*Zval/r beyond r=  1.4606
All V_l potentials equal beyond r=  1.4606
This should be close to max(r_c) in ps generation
All pots = -2*Zval/r beyond r=  1.4606

VLOCAL1: 99.0% of the norm of Vloc inside     20.347 Ry
VLOCAL1: 99.9% of the norm of Vloc inside     46.372 Ry
atom: Maximum radius for 4*pi*r*r*local-pseudopot. charge    1.76189
atom: Maximum radius for r*vlocal+2*Zval:    1.53550
GHOST: No ghost state for L =  0
GHOST: No ghost state for L =  1
GHOST: No ghost state for L =  2
GHOST: No ghost state for L =  3

KBgen: Kleinman-Bylander projectors: 
   l= 0   rc=  1.634559   el= -1.363963   Ekb=  5.296955   kbcos=  0.335621
   l= 1   rc=  1.614250   el= -0.521451   Ekb= -5.259161   kbcos= -0.433408
   l= 2   rc=  1.718383   el=  0.001991   Ekb= -1.271464   kbcos= -0.007566
   l= 3   rc=  1.761893   el=  0.003093   Ekb= -0.494769   kbcos= -0.001015

KBgen: Total number of  Kleinman-Bylander projectors:   16
atom: -------------------------------------------------------------------------

atom: SANKEY-TYPE ORBITALS:
atom: Selected multiple-zeta basis: split     

SPLIT: Orbitals with angular momentum L= 0

SPLIT: Basis orbitals for state 2s

SPLIT: PAO cut-off radius determined from an
SPLIT: energy shift=  0.007350 Ry

   izeta = 1
                 lambda =    1.000000
                     rc =    4.071465
                 energy =   -1.356470
                kinetic =    1.176977
    potential(screened) =   -2.533447
       potential(ionic) =   -8.057990

   izeta = 2
                 rmatch =    2.905100
              splitnorm =    0.150000
                 energy =   -1.158343
                kinetic =    1.813009
    potential(screened) =   -2.971352
       potential(ionic) =   -8.901931

SPLIT: Orbitals with angular momentum L= 1

SPLIT: Basis orbitals for state 2p

SPLIT: PAO cut-off radius determined from an
SPLIT: energy shift=  0.007350 Ry

   izeta = 1
                 lambda =    1.000000
                     rc =    4.972977
                 energy =   -0.513884
                kinetic =    3.441732
    potential(screened) =   -3.955616
       potential(ionic) =   -9.287901

   izeta = 2
                 rmatch =    3.054066
              splitnorm =    0.150000
                 energy =   -0.318226
                kinetic =    5.125348
    potential(screened) =   -5.443573
       potential(ionic) =  -11.380999

POLgen: Perturbative polarization orbital with L=  2

POLgen: Polarization orbital for state 2p

   izeta = 1
                     rc =    4.972977
                 energy =    1.607437
                kinetic =    3.268125
    potential(screened) =   -1.660688
       potential(ionic) =   -5.973652
atom: Total number of Sankey-type orbitals: 13

atm_pop: Valence configuration (for local Pseudopot. screening):
 2s( 2.00)                                                            
 2p( 3.00)                                                            
Vna: chval, zval:    5.00000   5.00000

Vna:  Cut-off radius for the neutral-atom potential:   4.972977
comcore: Pseudo-core radius Rcore=  1.554824

atom: _________________________________________________________________________

<basis_specs>
===============================================================================
C                    Z=   6    Mass=  12.010        Charge= 0.17977+309
Lmxo=1 Lmxkb= 3    BasisType=split      Semic=F
L=0  Nsemic=0  Cnfigmx=2
          n=1  nzeta=2  polorb=0
            splnorm:   0.15000    
               vcte:    0.0000    
               rinn:    0.0000    
                rcs:    0.0000      0.0000    
            lambdas:    1.0000      1.0000    
L=1  Nsemic=0  Cnfigmx=2
          n=1  nzeta=2  polorb=1
            splnorm:   0.15000    
               vcte:    0.0000    
               rinn:    0.0000    
                rcs:    0.0000      0.0000    
            lambdas:    1.0000      1.0000    
-------------------------------------------------------------------------------
L=0  Nkbl=1  erefs: 0.17977+309
L=1  Nkbl=1  erefs: 0.17977+309
L=2  Nkbl=1  erefs: 0.17977+309
L=3  Nkbl=1  erefs: 0.17977+309
===============================================================================
</basis_specs>

atom: Called for C                     (Z =   6)

read_vps: Pseudopotential generation method:
read_vps: ATM3      Troullier-Martins                       
Total valence charge:    4.00000

read_vps: Pseudopotential includes a core correction:
read_vps: Pseudo-core for xc-correction

xc_check: Exchange-correlation functional:
xc_check: GGA Perdew, Burke & Ernzerhof 1996
V l=0 = -2*Zval/r beyond r=  1.5227
V l=1 = -2*Zval/r beyond r=  1.5227
V l=2 = -2*Zval/r beyond r=  1.5227
V l=3 = -2*Zval/r beyond r=  1.5038
All V_l potentials equal beyond r=  1.5227
This should be close to max(r_c) in ps generation
All pots = -2*Zval/r beyond r=  1.5227

VLOCAL1: 99.0% of the norm of Vloc inside     18.722 Ry
VLOCAL1: 99.9% of the norm of Vloc inside     42.668 Ry
atom: Maximum radius for 4*pi*r*r*local-pseudopot. charge    1.83678
atom: Maximum radius for r*vlocal+2*Zval:    1.58088
GHOST: No ghost state for L =  0
GHOST: No ghost state for L =  1
GHOST: No ghost state for L =  2
GHOST: No ghost state for L =  3

KBgen: Kleinman-Bylander projectors: 
   l= 0   rc=  1.704034   el= -1.009801   Ekb=  5.335044   kbcos=  0.316824
   l= 1   rc=  1.704034   el= -0.388707   Ekb= -3.785862   kbcos= -0.366464
   l= 2   rc=  1.791422   el=  0.001971   Ekb= -0.970471   kbcos= -0.009212
   l= 3   rc=  1.859892   el=  0.003065   Ekb= -0.399525   kbcos= -0.001223

KBgen: Total number of  Kleinman-Bylander projectors:   16
atom: -------------------------------------------------------------------------

atom: SANKEY-TYPE ORBITALS:
atom: Selected multiple-zeta basis: split     

SPLIT: Orbitals with angular momentum L= 0

SPLIT: Basis orbitals for state 2s

SPLIT: PAO cut-off radius determined from an
SPLIT: energy shift=  0.007350 Ry

   izeta = 1
                 lambda =    1.000000
                     rc =    4.632753
                 energy =   -1.002270
                kinetic =    0.855760
    potential(screened) =   -1.858031
       potential(ionic) =   -5.417575

   izeta = 2
                 rmatch =    3.431921
              splitnorm =    0.150000
                 energy =   -0.867111
                kinetic =    1.300804
    potential(screened) =   -2.167915
       potential(ionic) =   -5.962684

SPLIT: Orbitals with angular momentum L= 1

SPLIT: Basis orbitals for state 2p

SPLIT: PAO cut-off radius determined from an
SPLIT: energy shift=  0.007350 Ry

   izeta = 1
                 lambda =    1.000000
                     rc =    5.658549
                 energy =   -0.381140
                kinetic =    2.399701
    potential(screened) =   -2.780841
       potential(ionic) =   -6.206085

   izeta = 2
                 rmatch =    3.653288
              splitnorm =    0.150000
                 energy =   -0.249149
                kinetic =    3.542762
    potential(screened) =   -3.791911
       potential(ionic) =   -7.581078

POLgen: Perturbative polarization orbital with L=  2

POLgen: Polarization orbital for state 2p

   izeta = 1
                     rc =    5.658549
                 energy =    1.109913
                kinetic =    2.304789
    potential(screened) =   -1.194876
       potential(ionic) =   -4.013592
atom: Total number of Sankey-type orbitals: 13

atm_pop: Valence configuration (for local Pseudopot. screening):
 2s( 2.00)                                                            
 2p( 2.00)                                                            
Vna: chval, zval:    4.00000   4.00000

Vna:  Cut-off radius for the neutral-atom potential:   5.658549
comcore: Pseudo-core radius Rcore=  1.791422

atom: _________________________________________________________________________

prinput: Basis input ----------------------------------------------------------

PAO.BasisType split     

%block ChemicalSpeciesLabel
    1    7 N                       # Species index, atomic number, species label
    2    6 C                       # Species index, atomic number, species label
%endblock ChemicalSpeciesLabel

%block PAO.Basis                 # Define Basis set
N                     2                    # Species label, number of l-shells
 n=2   0   2                         # n, l, Nzeta 
   4.071      2.905   
   1.000      1.000   
 n=2   1   2 P   1                   # n, l, Nzeta, Polarization, NzetaPol
   4.973      3.054   
   1.000      1.000   
C                     2                    # Species label, number of l-shells
 n=2   0   2                         # n, l, Nzeta 
   4.633      3.432   
   1.000      1.000   
 n=2   1   2 P   1                   # n, l, Nzeta, Polarization, NzetaPol
   5.659      3.653   
   1.000      1.000   
%endblock PAO.Basis

prinput: ----------------------------------------------------------------------

coor:   Atomic-coordinates input format  =     Fractional

siesta: Atomic coordinates (Bohr) and species
siesta:      9.28770  26.79272   0.00000  1        1
siesta:      9.28770  21.41544   0.00000  1        2
siesta:     11.61608  22.75985   0.00000  1        3
siesta:     11.61608  25.44831   0.00000  1        4
siesta:      6.95932  22.75985   0.00000  1        5
siesta:      6.95932  25.44831   0.00000  1        6
siesta:     -0.02582  21.41544   0.00000  1        7
siesta:      2.30256  22.75985   0.00000  1        8
siesta:      2.30256  25.44831   0.00000  1        9
siesta:     -4.68258  21.41544   0.00000  1       10
siesta:     -2.35420  22.75985   0.00000  1       11
siesta:     -2.35420  25.44831   0.00000  1       12
siesta:     -9.33934  21.41544   0.00000  1       13
siesta:     -7.01096  22.75985   0.00000  1       14
siesta:     -7.01096  25.44831   0.00000  1       15
siesta:    -11.66772  22.75985   0.00000  1       16
siesta:    -11.66772  25.44831   0.00000  1       17
siesta:     -9.33934  26.79272   0.00000  1       18
siesta:     -0.02582  26.79272   0.00000  1       19
siesta:     -0.02582   2.59549   0.00000  2       20
siesta:     -0.02582   5.28395   0.00000  2       21
siesta:     -2.35420  38.89134   0.00000  2       22
siesta:     -2.35420  41.57980   0.00000  2       23
siesta:      2.30256  38.89134   0.00000  2       24
siesta:      2.30256  41.57980   0.00000  2       25
siesta:      4.63094  34.85847   0.00000  2       26
siesta:      4.63094  37.54693   0.00000  2       27
siesta:      6.95932  30.82560   0.00000  2       28
siesta:      6.95932  33.51406   0.00000  2       29
siesta:      9.28770  29.48119   0.00000  2       30
siesta:     -4.68258  34.85847   0.00000  2       31
siesta:     -4.68258  37.54693   0.00000  2       32
siesta:      2.30256   6.62836   0.00000  2       33
siesta:      2.30256   9.31683   0.00000  2       34
siesta:      4.63094  10.66124   0.00000  2       35
siesta:      4.63094  13.34970   0.00000  2       36
siesta:      6.95932  14.69411   0.00000  2       37
siesta:      6.95932  17.38257   0.00000  2       38
siesta:      9.28770  18.72698   0.00000  2       39
siesta:     -2.35420   6.62836   0.00000  2       40
siesta:     -2.35420   9.31683   0.00000  2       41
siesta:     -0.02582  10.66124   0.00000  2       42
siesta:     -0.02582  13.34970   0.00000  2       43
siesta:      2.30256  14.69411   0.00000  2       44
siesta:      2.30256  17.38257   0.00000  2       45
siesta:      4.63094  18.72698   0.00000  2       46
siesta:      4.63094  21.41544   0.00000  2       47
siesta:     -4.68258  10.66124   0.00000  2       48
siesta:     -4.68258  13.34970   0.00000  2       49
siesta:     -2.35420  14.69411   0.00000  2       50
siesta:     -2.35420  17.38257   0.00000  2       51
siesta:     -0.02582  18.72698   0.00000  2       52
siesta:     -7.01096  14.69411   0.00000  2       53
siesta:     -7.01096  17.38257   0.00000  2       54
siesta:     -4.68258  18.72698   0.00000  2       55
siesta:     -9.33934  18.72698   0.00000  2       56
siesta:     -9.33934  29.48119   0.00000  2       57
siesta:      4.63094  26.79272   0.00000  2       58
siesta:      4.63094  29.48119   0.00000  2       59
siesta:     -0.02582  29.48119   0.00000  2       60
siesta:     -4.68258  26.79272   0.00000  2       61
siesta:     -4.68258  29.48119   0.00000  2       62
siesta:      2.30256  30.82560   0.00000  2       63
siesta:      2.30256  33.51406   0.00000  2       64
siesta:     -2.35420  30.82560   0.00000  2       65
siesta:     -2.35420  33.51406   0.00000  2       66
siesta:     -7.01096  30.82560   0.00000  2       67
siesta:     -7.01096  33.51406   0.00000  2       68
siesta:     -0.02582  34.85847   0.00000  2       69
siesta:     -0.02582  37.54693   0.00000  2       70
siesta:     -0.02582  42.92421   0.00000  2       71
siesta:     -0.02582  45.61267   0.00000  2       72

siesta: System type = slab      

initatomlists: Number of atoms, orbitals, and projectors:     72   936  1152

siesta: ******************** Simulation parameters ****************************
siesta:
siesta: The following are some of the parameters of the simulation.
siesta: A complete list of the parameters used, including default values,
siesta: can be found in file out.fdf
siesta:
redata: Non-Collinear-spin run           =     F
redata: SpinPolarized (Up/Down) run      =     F
redata: Number of spin components        =     1
redata: Long output                      =     F
redata: Number of Atomic Species         =        2
redata: Charge density info will appear in .RHO file
redata: Write Mulliken Pop.              =     NO
redata: Mesh Cutoff                      =   200.0000  Ry
redata: Net charge of the system         =     0.0000 |e|
redata: Max. number of SCF Iter          =      500
redata: SCF convergence failure will abort job
redata: Performing Pulay mixing using    =    10 iterations
redata: Mix DM in first SCF step ?       =     F
redata: Write Pulay info on disk?        =     F
redata: Discard 1st Pulay DM after  kick =     F
redata: New DM Mixing Weight             =     0.0500
redata: New DM Occupancy tolerance       = 0.000000000001
redata: No kicks to SCF
redata: DM Mixing Weight for Kicks       =     0.5000
redata: DM Tolerance for SCF             =     0.000100
redata: Require Energy convergence for SCF =     F
redata: DM Energy tolerance for SCF      =     0.000100 eV
redata: Require Harris convergence for SCF =     F
redata: DM Harris energy tolerance for SCF =     0.000100 eV
redata: Using Saved Data (generic)   =     F
redata: Use continuation files for DM    =     T
redata: Neglect nonoverlap interactions  =     F
redata: Method of Calculation            =     Diagonalization
redata: Divide and Conquer               =     T
redata: Electronic Temperature           =     0.0019  Ry
redata: Fix the spin of the system       =     F
redata: Dynamics option                  =     Verlet MD run
redata: Initial MD time step             =        1
redata:   Final MD time step             =        1
redata: Length of MD time step           =     1.0000  fs
redata: Initial Temperature of MD run    =     0.0000  K
redata: Perform a MD quench              =     F
redata: ***********************************************************************
Total number of electrons:   307.000000
Total ionic charge:   307.000000

* ProcessorY, Blocksize:    2  24

k-point displ. along   1 input, could be:     0.50    0.00
k-point displ. along   2 input, could be:     0.50    0.00
 Kpoints in:          231 . Kpoints trimmed:          231

siesta: k-grid: Number of k-points =   231
siesta: k-grid: Cutoff (effective) =     5.000 Ang
siesta: k-grid: Supercell and displacements
siesta: k-grid:   21   0   0      0.500
siesta: k-grid:    0  21   0      0.500
siesta: k-grid:    0   0   1      0.000
Naive supercell factors:     2    2    2

superc: Internal auxiliary supercell:     2 x     2 x     2  =       8
superc: Number of atoms, orbitals, and projectors:    576   7488   9216

* Maximum dynamic memory allocated =     4 MB

siesta:                 ==============================
                            Begin MD step =      1
                        ==============================

superc: Internal auxiliary supercell:     2 x     2 x     2  =       8
superc: Number of atoms, orbitals, and projectors:    576   7488   9216

outcell: Unit cell vectors (Ang):
       12.804619    7.392750    0.000000
        0.000000   14.785500    0.000000
        0.000000    0.000000   10.000000

outcell: Cell vector modules (Ang)   :   14.785500   14.785500   10.000000
outcell: Cell angles (23,13,12) (deg):     90.0000     90.0000     60.0000
outcell: Cell volume (Ang**3)        :   1893.2269
New_DM. Step:     1
Initializing Density Matrix...

InitMesh: MESH =   120 x   120 x    90 =     1296000
InitMesh: Mesh cutoff (required, used) =   200.000   223.865 Ry

* Maximum dynamic memory allocated =   186 MB

stepf: Fermi-Dirac step function

siesta: Program's energy decomposition (eV):
siesta: Ebs     =     -6154.141362
siesta: Eions   =     21457.201110
siesta: Ena     =      4899.266255
siesta: Ekin    =      7972.707975
siesta: Enl     =       104.319958
siesta: DEna    =        -0.000015
siesta: DUscf   =         0.000000
siesta: DUext   =         0.000000
siesta: Exc     =     -4634.344757
siesta: eta*DQ  =         0.000000
siesta: Emadel  =         0.000000
siesta: Emeta   =         0.000000
siesta: Emolmec =         0.000000
siesta: Ekinion =         0.000000
siesta: Eharris =    -12784.547649
siesta: Etot    =    -13115.251694
siesta: FreeEng =    -13115.251694

siesta: iscf   Eharris(eV)      E_KS(eV)   FreeEng(eV)   dDmax  Ef(eV)
siesta:    1   -12784.5476   -13115.2517   -13115.2517  6.3320 -6.8307
timer: Routine,Calls,Time,% = IterSCF        1    4072.752  99.70
elaps: Routine,Calls,Wall,% = IterSCF        1     509.743  99.70
siesta:    2   -20530.5170   -11800.1869   -11800.2659 15.5375-10.4739
siesta:    3   -12773.9352   -12918.4712   -12918.5469  2.6330 -4.9340
siesta:    4   -12689.4195   -12810.5827   -12810.6185  1.3548 -4.2088
siesta:    5   -12651.0660   -12714.2010   -12714.2916  0.8490 -3.8309
siesta:    6   -12635.7953   -12668.4540   -12668.4977  0.7344 -3.6501
siesta:    7   -12611.9138   -12640.8274   -12640.8442  0.7871 -4.0143
siesta:    8   -12610.7802   -12628.8567   -12628.9052  0.7220 -3.9571
siesta:    9   -12609.9811   -12606.2565   -12606.3041  0.3391 -3.8274
siesta:   10   -12609.6086   -12599.2779   -12599.3363  0.2573 -3.9027
siesta:   11   -12609.9759   -12594.3663   -12594.4382  0.2647 -3.8511
siesta:   12   -12610.7407   -12593.3401   -12593.3774  0.2731 -3.8234
siesta:   13   -12609.1707   -12590.7560   -12590.8286  0.2432 -3.9290
siesta:   14   -12608.4992   -12596.3535   -12596.3989  0.1794 -3.8411
siesta:   15   -12608.0164   -12599.6452   -12599.6779  0.1232 -3.8904
siesta:   16   -12607.8765   -12600.9426   -12600.9894  0.0913 -3.9086
siesta:   17   -12607.6974   -12602.5173   -12602.5682  0.0894 -3.9383
siesta:   18   -12607.6746   -12603.2016   -12603.2440  0.0759 -3.9534
siesta:   19   -12607.6340   -12605.1577   -12605.2002  0.0499 -3.9576
siesta:   20   -12607.6334   -12605.7946   -12605.8392  0.0494 -3.9560
siesta:   21   -12607.6299   -12606.4706   -12606.5150  0.0422 -3.9484
siesta:   22   -12607.6233   -12607.1745   -12607.2192  0.0315 -3.9364
siesta:   23   -12607.6168   -12608.1592   -12608.2046  0.0256 -3.9224
siesta:   24   -12607.6147   -12608.0798   -12608.1270  0.0192 -3.9235
siesta:   25   -12607.6139   -12607.7510   -12607.7975  0.0081 -3.9220
siesta:   26   -12607.6139   -12607.5828   -12607.6298  0.0052 -3.9230
siesta:   27   -12607.6132   -12607.4758   -12607.5223  0.0041 -3.9238
siesta:   28   -12607.6133   -12607.6205   -12607.6671  0.0026 -3.9245
siesta:   29   -12607.6132   -12607.6741   -12607.7206  0.0019 -3.9250
siesta:   30   -12607.6131   -12607.7028   -12607.7494  0.0014 -3.9255
siesta:   31   -12607.6131   -12607.6973   -12607.7438  0.0010 -3.9258
siesta:   32   -12607.6131   -12607.6905   -12607.7370  0.0009 -3.9258
siesta:   33   -12607.6131   -12607.6748   -12607.7214  0.0005 -3.9257
siesta:   34   -12607.6130   -12607.6707   -12607.7173  0.0003 -3.9256
siesta:   35   -12607.6131   -12607.6488   -12607.6954  0.0002 -3.9254
siesta:   36   -12607.6131   -12607.6411   -12607.6877  0.0001 -3.9253
siesta:   37   -12607.6131   -12607.6374   -12607.6840  0.0001 -3.9253

siesta: E_KS(eV) =           -12607.6322

siesta: E_KS - E_eggbox =    -12607.6322

siesta: Atomic forces (eV/Ang):
----------------------------------------
   Tot   -0.156818   -0.030425    0.000000
----------------------------------------
   Max  566.121295
   Res  161.276101    sqrt( Sum f_i^2 / 3N )
----------------------------------------
   Max  566.121295    constrained

Stress-tensor-Voigt (kbar):     -698.01    -2798.15       -0.01        0.24        0.00        0.00
(Free)E + p*V (eV/cell)   -11230.5980
Target enthalpy (eV/cell)   -12607.6788

siesta: Stress tensor (static) (eV/Ang**3):
        -0.435660    0.000149    0.000000
         0.000149   -1.746449    0.000000
         0.000000    0.000000   -0.000008

siesta: Pressure (static):       1165.39145354  kBar

siesta: Stress tensor (total) (eV/Ang**3):
        -0.435660    0.000149    0.000000
         0.000149   -1.746449    0.000000
         0.000000    0.000000   -0.000008

siesta: Pressure (total):       1165.39145354  kBar

siesta: Temp_ion =       0.000 K

* Maximum dynamic memory allocated =   203 MB
Computing bands...

siesta: Program's energy decomposition (eV):
siesta: Ebs     =     -5041.663566
siesta: Eions   =     21457.201110
siesta: Ena     =      4899.266255
siesta: Ekin    =     10858.963967
siesta: Enl     =     -1509.320032
siesta: DEna    =      -711.380489
siesta: DUscf   =       101.455388
siesta: DUext   =         0.000000
siesta: Exc     =     -4789.416176
siesta: eta*DQ  =         0.000000
siesta: Emadel  =         0.000000
siesta: Emeta   =         0.000000
siesta: Emolmec =         0.000000
siesta: Ekinion =         0.000000
siesta: Eharris =    -12607.613052
siesta: Etot    =    -12607.632197
siesta: FreeEng =    -12607.678784

siesta: Final energy (eV):
siesta:  Band Struct. =   -5041.663566
siesta:       Kinetic =   10858.963967
siesta:       Hartree =   34046.173807
siesta:    Ext. field =       0.000000
siesta:   Exch.-corr. =   -4789.416176
siesta:  Ion-electron =  -78551.452830
siesta:       Ion-ion =   25828.099036
siesta:       Ekinion =       0.000000
siesta:         Total =  -12607.632197

siesta: Atomic forces (eV/Ang):
siesta:      1    0.704409    2.613631    0.000000
siesta:      2    0.465552   -2.758028    0.000000
siesta:      3   -1.201587    3.531843    0.000000
siesta:      4   -1.362444   -3.407967    0.000000
siesta:      5   -2.116859    0.811509    0.000000
siesta:      6   -1.934234   -0.964920    0.000000
siesta:      7    0.902693   -3.080884    0.000000
siesta:      8    1.192370   -0.670663    0.000000
siesta:      9    1.280814    0.361919    0.000000
siesta:     10    0.281863   -1.938218    0.000000
siesta:     11   -0.994225    0.274431    0.000000
siesta:     12   -1.618141    1.033895    0.000000
siesta:     13   -1.238025   -3.616402    0.000000
siesta:     14    0.848008    2.291634    0.000000
siesta:     15    2.468591   -0.944343    0.000000
siesta:     16    1.590843    3.425009    0.000000
siesta:     17    1.117046   -3.395584    0.000000
siesta:     18   -0.756817    2.977121    0.000000
siesta:     19   -0.200352    2.411070    0.000000
siesta:     20   -0.210904  545.319364    0.000000
siesta:     21   -0.084018 -126.391396    0.000000
siesta:     22    0.439193  127.167182    0.000000
siesta:     23  -16.122489 -549.038911    0.000000
siesta:     24   -0.313129  127.132887    0.000000
siesta:     25   15.573103 -548.236629    0.000000
siesta:     26   26.072742    6.231848    0.000000
siesta:     27   33.406552 -549.078357    0.000000
siesta:     28    1.891389    0.435520    0.000000
siesta:     29   -2.418416    0.644838    0.000000
siesta:     30    0.730305   -2.263491    0.000000
siesta:     31  -26.289477    6.109318    0.000000
siesta:     32  -33.522292 -549.268348    0.000000
siesta:     33   15.765142  548.342611    0.000000
siesta:     34   -0.326413 -127.073430    0.000000
siesta:     35   33.442033  548.983804    0.000000
siesta:     36   26.180539   -6.207133    0.000000
siesta:     37   -2.528177   -0.809396    0.000000
siesta:     38    1.625401   -0.290466    0.000000
siesta:     39    0.845467    2.390062    0.000000
siesta:     40  -15.482238  548.398227    0.000000
siesta:     41    0.639136 -127.132341    0.000000
siesta:     42   -0.014249  541.907989    0.000000
siesta:     43   -0.226156 -126.881995    0.000000
siesta:     44   21.217464  557.748945    0.000000
siesta:     45   23.058570   -6.105763    0.000000
siesta:     46   -2.311656    3.365448    0.000000
siesta:     47    0.345285    0.180987    0.000000
siesta:     48  -33.684819  549.200818    0.000000
siesta:     49  -26.239092   -6.470014    0.000000
siesta:     50  -19.874387  558.079238    0.000000
siesta:     51  -23.397004   -5.139382    0.000000
siesta:     52    0.395640  566.121295    0.000000
siesta:     53    2.717090   -0.870494    0.000000
siesta:     54   -1.290554    0.361699    0.000000
siesta:     55    2.033580    3.062772    0.000000
siesta:     56   -1.002194    2.605381    0.000000
siesta:     57   -0.680573   -2.587062    0.000000
siesta:     58    0.279735    0.353668    0.000000
siesta:     59   -2.297325   -3.842005    0.000000
siesta:     60    0.230035 -565.996551    0.000000
siesta:     61   -0.256019   -0.136020    0.000000
siesta:     62    2.092303   -3.252900    0.000000
siesta:     63   22.730157    5.891884    0.000000
siesta:     64   21.308802 -557.642433    0.000000
siesta:     65  -22.854432    5.811300    0.000000
siesta:     66  -21.340295 -557.635650    0.000000
siesta:     67   -1.481349    0.233718    0.000000
siesta:     68    2.531696    0.890586    0.000000
siesta:     69   -0.111698  126.530431    0.000000
siesta:     70   -0.303084 -541.937575    0.000000
siesta:     71   -0.218144  126.802972    0.000000
siesta:     72   -0.257100 -545.002527    0.000000
siesta: ----------------------------------------
siesta:    Tot   -0.156818   -0.030425    0.000000

siesta: Stress tensor (static) (eV/Ang**3):
siesta:    -0.435660    0.000149    0.000000
siesta:     0.000149   -1.746449    0.000000
siesta:     0.000000    0.000000   -0.000008

siesta: Cell volume =       1893.226884 Ang**3

siesta: Pressure (static):
siesta:                Solid            Molecule  Units
siesta:           0.00792201          0.12567698  Ry/Bohr**3
siesta:           0.72737227         11.53923289  eV/Ang**3
siesta:        1165.39145354      18488.08915380  kBar
(Free)E+ p_basis*V_orbitals  =      -12579.657474
(Free)Eharris+ p_basis*V_orbitals  =      -12579.633148

siesta: Electric dipole (a.u.)  =    0.000000    0.000000    0.000000
siesta: Electric dipole (Debye) =    0.000000    0.000000    0.000000

* Maximum dynamic memory allocated : Node    0 =   203 MB
* Maximum dynamic memory allocated : Node    1 =    71 MB
* Maximum dynamic memory allocated : Node    2 =    74 MB
* Maximum dynamic memory allocated : Node    3 =   195 MB
* Maximum dynamic memory allocated : Node    4 =   183 MB
* Maximum dynamic memory allocated : Node    5 =    71 MB
* Maximum dynamic memory allocated : Node    6 =    71 MB
* Maximum dynamic memory allocated : Node    7 =   168 MB

* Maximum memory occured during matrixMtoO                    

timer: CPU execution times:
timer:  Routine       Calls   Time/call    Tot.time        %
timer:  siesta            1  148249.401  148249.401   100.00
timer:  Setup             1       3.792       3.792     0.00
timer:  bands             3     268.349     805.047     0.54
timer:  writewave         1       0.043       0.043     0.00
timer:  KSV_init          1       0.008       0.008     0.00
timer:  IterMD            1  147434.875  147434.875    99.45
timer:  hsparse           1       0.234       0.234     0.00
timer:  overlap           1       7.700       7.700     0.01
timer:  IterSCF          37    3980.013  147260.497    99.33
timer:  kinefsm           2       3.955       7.909     0.01
timer:  nlefsm            2      18.636      37.272     0.03
timer:  DHSCF            38      90.114    3424.342     2.31
timer:  DHSCF1            1       0.773       0.773     0.00
timer:  DHSCF2            1      33.741      33.741     0.02
timer:  REORD           306       0.010       2.975     0.00
timer:  POISON           39       2.239      87.315     0.06
timer:  DHSCF3           38      88.359    3357.628     2.26
timer:  rhoofd           38      17.146     651.547     0.44
timer:  cellXC           38       3.431     130.382     0.09
timer:  vmat             38      42.332    1608.600     1.09
timer:  MolMec            2       0.000       0.000     0.00
timer:  diagon           37    3888.280  143866.374    97.04
timer:  c-eigval       8668       6.648   57622.144    38.87
timer:  c-buildHS      8668       0.112     966.934     0.65
timer:  cdiag         17215       6.852  117952.053    79.56
timer:  cdiag1        17215       0.425    7318.290     4.94
timer:  cdiag2        17215       1.897   32661.491    22.03
timer:  cdiag3        17215       3.940   67825.789    45.75
timer:  cdiag4        17215       0.204    3507.898     2.37
timer:  c-eigvec       8547       7.220   61709.008    41.63
timer:  c-buildD       8547       2.959   25293.995    17.06
timer:  DHSCF4            1      30.178      30.178     0.02
timer:  dfscf             1      28.377      28.377     0.02
timer:  overfsm           1       0.395       0.395     0.00
timer:  optical           1       4.988       4.988     0.00
  

elaps: ELAPSED times:
elaps:  Routine       Calls   Time/call    Tot.time        %
elaps:  siesta            1   18550.697   18550.697   100.00
elaps:  Setup             1       0.490       0.490     0.00
elaps:  bands             3      33.596     100.788     0.54
elaps:  writewave         1       0.006       0.006     0.00
elaps:  KSV_init          1       0.001       0.001     0.00
elaps:  IterMD            1   18448.760   18448.760    99.45
elaps:  hsparse           1       0.030       0.030     0.00
elaps:  overlap           1       0.957       0.957     0.01
elaps:  IterSCF          37     498.029   18427.072    99.33
elaps:  kinefsm           2       0.492       0.983     0.01
elaps:  nlefsm            2       2.224       4.449     0.02
elaps:  DHSCF            38      11.387     432.724     2.33
elaps:  DHSCF1            1       0.101       0.101     0.00
elaps:  DHSCF2            1       4.217       4.217     0.02
elaps:  REORD           306       0.001       0.388     0.00
elaps:  POISON           39       0.280      10.925     0.06
elaps:  DHSCF3           38      11.054     420.057     2.26
elaps:  rhoofd           38       4.996     189.843     1.02
elaps:  cellXC           38       0.428      16.267     0.09
elaps:  vmat             38       5.296     201.231     1.08
elaps:  MolMec            2       0.000       0.000     0.00
elaps:  diagon           37     486.524   18001.388    97.04
elaps:  c-eigval       8668       0.832    7209.644    38.86
elaps:  c-buildHS      8668       0.015     128.589     0.69
elaps:  cdiag         17215       0.866   14909.821    80.37
elaps:  cdiag1        17215       0.053     906.344     4.89
elaps:  cdiag2        17215       0.237    4086.942    22.03
elaps:  cdiag3        17215       0.494    8497.600    45.81
elaps:  cdiag4        17215       0.026     441.056     2.38
elaps:  c-eigvec       8547       0.924    7894.040    42.55
elaps:  c-buildD       8547       0.350    2991.780    16.13
elaps:  DHSCF4            1       8.081       8.081     0.04
elaps:  dfscf             1       7.688       7.688     0.04
elaps:  overfsm           1       0.046       0.046     0.00
elaps:  optical           1       0.001       0.001     0.00
  
>> End of run:   2-MAY-2016  13:38:58
