Siesta Version:                                        siesta-3.2-pl-3
Architecture  : x86_64-unknown-linux-gnu--unknown
Compiler flags: mpiifort -g -O2 -fPIC -xSSE4.1 -fp-model source -shared-intel 
PARALLEL version

* Running on    8 nodes in parallel
>> Start of run:  21-APR-2016  14:05:44

                           ***********************       
                           *  WELCOME TO SIESTA  *       
                           ***********************       

reinit: Reading from standard input
************************** Dump of input data file ****************************
#(1) General system descriptors
SystemName            GRP_doping    # Descriptive name of the system
SystemLabel           GRP_doping    # Short name for naming files
%include STRUCT.fdf
%include KPT.fdf
%include BASIS.fdf
#%include TS.fdf # for transiesta calculation
#(4) DFT, Grid, SCF
XC.functional         GGA           # LDA or GGA (default = LDA)
XC.authors            PBE           # CA (Ceperley-Aldr) = PZ
                                    #    (Perdew-Zunger) - LDA - Default
                                    # PW92 (Perdew-Wang-92) - LDA
                                    # PBE (Perdew-Burke-Ernzerhof) - GGA
MeshCutoff            200.000000    Ry      # Default: 50.0 Ry ~ 0.444 Bohr
                                    #         100.0 Ry ~ 0.314 Bohr
MaxSCFIterations      500           # Default: 50
DM.MixingWeight       0.05          # Default: 0.25
DM.NumberPulay        10            # Default: 0
DM.PulayOnFile        F             # SystemLabel.P1, SystemLabel.P2
DM.Tolerance          1.d-4         # Default: 1.d-4
DM.UseSaveDM          .true.        # because of the bug
SCFMustConverge       .true.
NeglNonOverlapInt     F             # Default: F
#(5) Eigenvalue problem: order-N or diagonalization
SolutionMethod        Diagon        # or Transiesta
ElectronicTemperature 300.0 K       # Default: 300.0 K
#(6) Molecular dynamics and relaxations
#MD.TypeOfRun          CG            # Type of dynamics:
#MD.VariableCell       F
#MD.NumCGsteps         0           # 0 for single-point / 100 for gopt
#MD.MaxCGDispl         0.2 Bohr      # Default: 0.2 Bohr
#MD.MaxForceTol        0.02 eV/Ang   # Default: 0.04 eV/Ang
#MD.MaxStressTol       1.0 GPa       # Default: 1.0 GPa
# Geometry Constraints
#%block GeometryConstraints
#	position from 1 to 44
#%endblock GeometryConstraints
BandLinesScale   pi/a
%block BandLines
 1   0.00000000  0.00000000  0.00000000
50   0.00000000  0.07809418  0.00000000
50   0.04509075  0.07809242  0.00000000
20   0.00000000  0.00000000  0.00000000
%endblock BandLines
************************** End of input data file *****************************

reinit: -----------------------------------------------------------------------
reinit: System Name: GRP_doping
reinit: -----------------------------------------------------------------------
reinit: System Label: GRP_doping                                                  
reinit: -----------------------------------------------------------------------

initatom: Reading input for the pseudopotentials and atomic orbitals ----------
 Species number:            1  Label: B Atomic number:           5
 Species number:            2  Label: C Atomic number:           6
Ground state valence configuration:   2s02  2p01
Reading pseudopotential information in formatted form from B.psf

Valence configuration for pseudopotential generation:
2s( 2.00) rc: 1.74
2p( 1.00) rc: 1.74
3d( 0.00) rc: 1.74
4f( 0.00) rc: 1.74
Ground state valence configuration:   2s02  2p02
Reading pseudopotential information in formatted form from C.psf

Valence configuration for pseudopotential generation:
2s( 2.00) rc: 1.54
2p( 2.00) rc: 1.54
3d( 0.00) rc: 1.54
4f( 0.00) rc: 1.54
For B, standard SIESTA heuristics set lmxkb to 3
 (one more than the basis l, including polarization orbitals).
Use PS.lmax or PS.KBprojectors blocks to override.
For C, standard SIESTA heuristics set lmxkb to 3
 (one more than the basis l, including polarization orbitals).
Use PS.lmax or PS.KBprojectors blocks to override.

<basis_specs>
===============================================================================
B                    Z=   5    Mass=  10.810        Charge= 0.17977+309
Lmxo=1 Lmxkb= 3    BasisType=split      Semic=F
L=0  Nsemic=0  Cnfigmx=2
          n=1  nzeta=2  polorb=0
            splnorm:   0.15000    
               vcte:    0.0000    
               rinn:    0.0000    
                rcs:    0.0000      0.0000    
            lambdas:    1.0000      1.0000    
L=1  Nsemic=0  Cnfigmx=2
          n=1  nzeta=2  polorb=1
            splnorm:   0.15000    
               vcte:    0.0000    
               rinn:    0.0000    
                rcs:    0.0000      0.0000    
            lambdas:    1.0000      1.0000    
-------------------------------------------------------------------------------
L=0  Nkbl=1  erefs: 0.17977+309
L=1  Nkbl=1  erefs: 0.17977+309
L=2  Nkbl=1  erefs: 0.17977+309
L=3  Nkbl=1  erefs: 0.17977+309
===============================================================================
</basis_specs>

atom: Called for B                     (Z =   5)

read_vps: Pseudopotential generation method:
read_vps: ATM3      Troullier-Martins                       
Total valence charge:    3.00000

read_vps: Pseudopotential includes a core correction:
read_vps: Pseudo-core for xc-correction

xc_check: Exchange-correlation functional:
xc_check: GGA Perdew, Burke & Ernzerhof 1996
V l=0 = -2*Zval/r beyond r=  1.7165
V l=1 = -2*Zval/r beyond r=  1.7165
V l=2 = -2*Zval/r beyond r=  1.7165
V l=3 = -2*Zval/r beyond r=  1.6951
All V_l potentials equal beyond r=  1.7165
This should be close to max(r_c) in ps generation
All pots = -2*Zval/r beyond r=  1.7165

VLOCAL1: 99.0% of the norm of Vloc inside     14.733 Ry
VLOCAL1: 99.9% of the norm of Vloc inside     33.577 Ry
atom: Maximum radius for 4*pi*r*r*local-pseudopot. charge    2.04484
atom: Maximum radius for r*vlocal+2*Zval:    1.75994
GHOST: No ghost state for L =  0
GHOST: No ghost state for L =  1
GHOST: No ghost state for L =  2
GHOST: No ghost state for L =  3

KBgen: Kleinman-Bylander projectors: 
   l= 0   rc=  1.897051   el= -0.693730   Ekb=  4.595746   kbcos=  0.286105
   l= 1   rc=  1.920920   el= -0.265236   Ekb= -2.350715   kbcos= -0.315747
   l= 2   rc=  2.044840   el=  0.002055   Ekb= -0.690767   kbcos= -0.013822
   l= 3   rc=  2.149707   el=  0.003188   Ekb= -0.315358   kbcos= -0.002055

KBgen: Total number of  Kleinman-Bylander projectors:   16
atom: -------------------------------------------------------------------------

atom: SANKEY-TYPE ORBITALS:
atom: Selected multiple-zeta basis: split     

SPLIT: Orbitals with angular momentum L= 0

SPLIT: Basis orbitals for state 2s

SPLIT: PAO cut-off radius determined from an
SPLIT: energy shift=  0.007350 Ry

   izeta = 1
                 lambda =    1.000000
                     rc =    5.422032
                 energy =   -0.686029
                kinetic =    0.576707
    potential(screened) =   -1.262736
       potential(ionic) =   -3.271094

   izeta = 2
                 rmatch =    4.222573
              splitnorm =    0.150000
                 energy =   -0.602132
                kinetic =    0.858975
    potential(screened) =   -1.461107
       potential(ionic) =   -3.582536

SPLIT: Orbitals with angular momentum L= 1

SPLIT: Basis orbitals for state 2p

SPLIT: PAO cut-off radius determined from an
SPLIT: energy shift=  0.007350 Ry

   izeta = 1
                 lambda =    1.000000
                     rc =    6.790259
                 energy =   -0.258578
                kinetic =    1.481412
    potential(screened) =   -1.739989
       potential(ionic) =   -3.657461

   izeta = 2
                 rmatch =    4.608740
              splitnorm =    0.150000
                 energy =   -0.173757
                kinetic =    2.186690
    potential(screened) =   -2.360447
       potential(ionic) =   -4.464260

POLgen: Perturbative polarization orbital with L=  2

POLgen: Polarization orbital for state 2p

   izeta = 1
                     rc =    6.790259
                 energy =    0.684082
                kinetic =    1.471481
    potential(screened) =   -0.787399
       potential(ionic) =   -2.406985
atom: Total number of Sankey-type orbitals: 13

atm_pop: Valence configuration (for local Pseudopot. screening):
 2s( 2.00)                                                            
 2p( 1.00)                                                            
Vna: chval, zval:    3.00000   3.00000

Vna:  Cut-off radius for the neutral-atom potential:   6.790259
comcore: Pseudo-core radius Rcore=  2.122997

atom: _________________________________________________________________________

<basis_specs>
===============================================================================
C                    Z=   6    Mass=  12.010        Charge= 0.17977+309
Lmxo=1 Lmxkb= 3    BasisType=split      Semic=F
L=0  Nsemic=0  Cnfigmx=2
          n=1  nzeta=2  polorb=0
            splnorm:   0.15000    
               vcte:    0.0000    
               rinn:    0.0000    
                rcs:    0.0000      0.0000    
            lambdas:    1.0000      1.0000    
L=1  Nsemic=0  Cnfigmx=2
          n=1  nzeta=2  polorb=1
            splnorm:   0.15000    
               vcte:    0.0000    
               rinn:    0.0000    
                rcs:    0.0000      0.0000    
            lambdas:    1.0000      1.0000    
-------------------------------------------------------------------------------
L=0  Nkbl=1  erefs: 0.17977+309
L=1  Nkbl=1  erefs: 0.17977+309
L=2  Nkbl=1  erefs: 0.17977+309
L=3  Nkbl=1  erefs: 0.17977+309
===============================================================================
</basis_specs>

atom: Called for C                     (Z =   6)

read_vps: Pseudopotential generation method:
read_vps: ATM3      Troullier-Martins                       
Total valence charge:    4.00000

read_vps: Pseudopotential includes a core correction:
read_vps: Pseudo-core for xc-correction

xc_check: Exchange-correlation functional:
xc_check: GGA Perdew, Burke & Ernzerhof 1996
V l=0 = -2*Zval/r beyond r=  1.5227
V l=1 = -2*Zval/r beyond r=  1.5227
V l=2 = -2*Zval/r beyond r=  1.5227
V l=3 = -2*Zval/r beyond r=  1.5038
All V_l potentials equal beyond r=  1.5227
This should be close to max(r_c) in ps generation
All pots = -2*Zval/r beyond r=  1.5227

VLOCAL1: 99.0% of the norm of Vloc inside     18.722 Ry
VLOCAL1: 99.9% of the norm of Vloc inside     42.668 Ry
atom: Maximum radius for 4*pi*r*r*local-pseudopot. charge    1.83678
atom: Maximum radius for r*vlocal+2*Zval:    1.58088
GHOST: No ghost state for L =  0
GHOST: No ghost state for L =  1
GHOST: No ghost state for L =  2
GHOST: No ghost state for L =  3

KBgen: Kleinman-Bylander projectors: 
   l= 0   rc=  1.704034   el= -1.009801   Ekb=  5.335044   kbcos=  0.316824
   l= 1   rc=  1.704034   el= -0.388707   Ekb= -3.785862   kbcos= -0.366464
   l= 2   rc=  1.791422   el=  0.001971   Ekb= -0.970471   kbcos= -0.009212
   l= 3   rc=  1.859892   el=  0.003065   Ekb= -0.399525   kbcos= -0.001223

KBgen: Total number of  Kleinman-Bylander projectors:   16
atom: -------------------------------------------------------------------------

atom: SANKEY-TYPE ORBITALS:
atom: Selected multiple-zeta basis: split     

SPLIT: Orbitals with angular momentum L= 0

SPLIT: Basis orbitals for state 2s

SPLIT: PAO cut-off radius determined from an
SPLIT: energy shift=  0.007350 Ry

   izeta = 1
                 lambda =    1.000000
                     rc =    4.632753
                 energy =   -1.002270
                kinetic =    0.855760
    potential(screened) =   -1.858031
       potential(ionic) =   -5.417575

   izeta = 2
                 rmatch =    3.431921
              splitnorm =    0.150000
                 energy =   -0.867111
                kinetic =    1.300804
    potential(screened) =   -2.167915
       potential(ionic) =   -5.962684

SPLIT: Orbitals with angular momentum L= 1

SPLIT: Basis orbitals for state 2p

SPLIT: PAO cut-off radius determined from an
SPLIT: energy shift=  0.007350 Ry

   izeta = 1
                 lambda =    1.000000
                     rc =    5.658549
                 energy =   -0.381140
                kinetic =    2.399701
    potential(screened) =   -2.780841
       potential(ionic) =   -6.206085

   izeta = 2
                 rmatch =    3.653288
              splitnorm =    0.150000
                 energy =   -0.249149
                kinetic =    3.542762
    potential(screened) =   -3.791911
       potential(ionic) =   -7.581078

POLgen: Perturbative polarization orbital with L=  2

POLgen: Polarization orbital for state 2p

   izeta = 1
                     rc =    5.658549
                 energy =    1.109913
                kinetic =    2.304789
    potential(screened) =   -1.194876
       potential(ionic) =   -4.013592
atom: Total number of Sankey-type orbitals: 13

atm_pop: Valence configuration (for local Pseudopot. screening):
 2s( 2.00)                                                            
 2p( 2.00)                                                            
Vna: chval, zval:    4.00000   4.00000

Vna:  Cut-off radius for the neutral-atom potential:   5.658549
comcore: Pseudo-core radius Rcore=  1.791422

atom: _________________________________________________________________________

prinput: Basis input ----------------------------------------------------------

PAO.BasisType split     

%block ChemicalSpeciesLabel
    1    5 B                       # Species index, atomic number, species label
    2    6 C                       # Species index, atomic number, species label
%endblock ChemicalSpeciesLabel

%block PAO.Basis                 # Define Basis set
B                     2                    # Species label, number of l-shells
 n=2   0   2                         # n, l, Nzeta 
   5.422      4.223   
   1.000      1.000   
 n=2   1   2 P   1                   # n, l, Nzeta, Polarization, NzetaPol
   6.790      4.609   
   1.000      1.000   
C                     2                    # Species label, number of l-shells
 n=2   0   2                         # n, l, Nzeta 
   4.633      3.432   
   1.000      1.000   
 n=2   1   2 P   1                   # n, l, Nzeta, Polarization, NzetaPol
   5.659      3.653   
   1.000      1.000   
%endblock PAO.Basis

prinput: ----------------------------------------------------------------------

coor:   Atomic-coordinates input format  =     Fractional

siesta: Atomic coordinates (Bohr) and species
siesta:     -0.02582   2.59549   0.00000  1        1
siesta:     -0.02582   5.28395   0.00000  1        2
siesta:     -2.35420  38.89134   0.00000  1        3
siesta:     -2.35420  41.57980   0.00000  1        4
siesta:      2.30256  38.89134   0.00000  1        5
siesta:      2.30256  41.57980   0.00000  1        6
siesta:      4.63094  34.85847   0.00000  1        7
siesta:      4.63094  37.54693   0.00000  1        8
siesta:     -4.68258  34.85847   0.00000  1        9
siesta:     -4.68258  37.54693   0.00000  1       10
siesta:      2.30256   6.62836   0.00000  1       11
siesta:      2.30256   9.31683   0.00000  1       12
siesta:      4.63094  10.66124   0.00000  1       13
siesta:      4.63094  13.34970   0.00000  1       14
siesta:     -2.35420   6.62836   0.00000  1       15
siesta:     -2.35420   9.31683   0.00000  1       16
siesta:     -0.02582  10.66124   0.00000  1       17
siesta:     -4.68258  10.66124   0.00000  1       18
siesta:     -4.68258  13.34970   0.00000  1       19
siesta:      2.30256  33.51406   0.00000  1       20
siesta:     -2.35420  33.51406   0.00000  1       21
siesta:     -0.02582  34.85847   0.00000  1       22
siesta:     -0.02582  37.54693   0.00000  1       23
siesta:     -0.02582  42.92421   0.00000  1       24
siesta:     -0.02582  45.61267   0.00000  1       25
siesta:      6.95932  30.82560   0.00000  2       26
siesta:      6.95932  33.51406   0.00000  2       27
siesta:      9.28770  26.79272   0.00000  2       28
siesta:      9.28770  29.48119   0.00000  2       29
siesta:      6.95932  14.69411   0.00000  2       30
siesta:      6.95932  17.38257   0.00000  2       31
siesta:      9.28770  18.72698   0.00000  2       32
siesta:      9.28770  21.41544   0.00000  2       33
siesta:     11.61608  22.75985   0.00000  2       34
siesta:     11.61608  25.44831   0.00000  2       35
siesta:     -0.02582  13.34970   0.00000  2       36
siesta:      2.30256  14.69411   0.00000  2       37
siesta:      2.30256  17.38257   0.00000  2       38
siesta:      4.63094  18.72698   0.00000  2       39
siesta:      4.63094  21.41544   0.00000  2       40
siesta:      6.95932  22.75985   0.00000  2       41
siesta:      6.95932  25.44831   0.00000  2       42
siesta:     -2.35420  14.69411   0.00000  2       43
siesta:     -2.35420  17.38257   0.00000  2       44
siesta:     -0.02582  18.72698   0.00000  2       45
siesta:     -0.02582  21.41544   0.00000  2       46
siesta:      2.30256  22.75985   0.00000  2       47
siesta:      2.30256  25.44831   0.00000  2       48
siesta:     -7.01096  14.69411   0.00000  2       49
siesta:     -7.01096  17.38257   0.00000  2       50
siesta:     -4.68258  18.72698   0.00000  2       51
siesta:     -4.68258  21.41544   0.00000  2       52
siesta:     -2.35420  22.75985   0.00000  2       53
siesta:     -2.35420  25.44831   0.00000  2       54
siesta:     -9.33934  18.72698   0.00000  2       55
siesta:     -9.33934  21.41544   0.00000  2       56
siesta:     -7.01096  22.75985   0.00000  2       57
siesta:     -7.01096  25.44831   0.00000  2       58
siesta:    -11.66772  22.75985   0.00000  2       59
siesta:    -11.66772  25.44831   0.00000  2       60
siesta:     -9.33934  26.79272   0.00000  2       61
siesta:     -9.33934  29.48119   0.00000  2       62
siesta:      4.63094  26.79272   0.00000  2       63
siesta:      4.63094  29.48119   0.00000  2       64
siesta:     -0.02582  26.79272   0.00000  2       65
siesta:     -0.02582  29.48119   0.00000  2       66
siesta:     -4.68258  26.79272   0.00000  2       67
siesta:     -4.68258  29.48119   0.00000  2       68
siesta:      2.30256  30.82560   0.00000  2       69
siesta:     -2.35420  30.82560   0.00000  2       70
siesta:     -7.01096  30.82560   0.00000  2       71
siesta:     -7.01096  33.51406   0.00000  2       72

siesta: System type = slab      

initatomlists: Number of atoms, orbitals, and projectors:     72   936  1152

siesta: ******************** Simulation parameters ****************************
siesta:
siesta: The following are some of the parameters of the simulation.
siesta: A complete list of the parameters used, including default values,
siesta: can be found in file out.fdf
siesta:
redata: Non-Collinear-spin run           =     F
redata: SpinPolarized (Up/Down) run      =     F
redata: Number of spin components        =     1
redata: Long output                      =     F
redata: Number of Atomic Species         =        2
redata: Charge density info will appear in .RHO file
redata: Write Mulliken Pop.              =     NO
redata: Mesh Cutoff                      =   200.0000  Ry
redata: Net charge of the system         =     0.0000 |e|
redata: Max. number of SCF Iter          =      500
redata: SCF convergence failure will abort job
redata: Performing Pulay mixing using    =    10 iterations
redata: Mix DM in first SCF step ?       =     F
redata: Write Pulay info on disk?        =     F
redata: Discard 1st Pulay DM after  kick =     F
redata: New DM Mixing Weight             =     0.0500
redata: New DM Occupancy tolerance       = 0.000000000001
redata: No kicks to SCF
redata: DM Mixing Weight for Kicks       =     0.5000
redata: DM Tolerance for SCF             =     0.000100
redata: Require Energy convergence for SCF =     F
redata: DM Energy tolerance for SCF      =     0.000100 eV
redata: Require Harris convergence for SCF =     F
redata: DM Harris energy tolerance for SCF =     0.000100 eV
redata: Using Saved Data (generic)   =     F
redata: Use continuation files for DM    =     T
redata: Neglect nonoverlap interactions  =     F
redata: Method of Calculation            =     Diagonalization
redata: Divide and Conquer               =     T
redata: Electronic Temperature           =     0.0019  Ry
redata: Fix the spin of the system       =     F
redata: Dynamics option                  =     Verlet MD run
redata: Initial MD time step             =        1
redata:   Final MD time step             =        1
redata: Length of MD time step           =     1.0000  fs
redata: Initial Temperature of MD run    =     0.0000  K
redata: Perform a MD quench              =     F
redata: ***********************************************************************
Total number of electrons:   263.000000
Total ionic charge:   263.000000

* ProcessorY, Blocksize:    2  24

k-point displ. along   1 input, could be:     0.50    0.00
k-point displ. along   2 input, could be:     0.50    0.00
 Kpoints in:          231 . Kpoints trimmed:          231

siesta: k-grid: Number of k-points =   231
siesta: k-grid: Cutoff (effective) =     5.000 Ang
siesta: k-grid: Supercell and displacements
siesta: k-grid:   21   0   0      0.500
siesta: k-grid:    0  21   0      0.500
siesta: k-grid:    0   0   1      0.000
Naive supercell factors:     2    2    2

superc: Internal auxiliary supercell:     2 x     2 x     2  =       8
superc: Number of atoms, orbitals, and projectors:    576   7488   9216

* Maximum dynamic memory allocated =     4 MB

siesta:                 ==============================
                            Begin MD step =      1
                        ==============================

superc: Internal auxiliary supercell:     2 x     2 x     2  =       8
superc: Number of atoms, orbitals, and projectors:    576   7488   9216

outcell: Unit cell vectors (Ang):
       12.804619    7.392750    0.000000
        0.000000   14.785500    0.000000
        0.000000    0.000000   10.000000

outcell: Cell vector modules (Ang)   :   14.785500   14.785500   10.000000
outcell: Cell angles (23,13,12) (deg):     90.0000     90.0000     60.0000
outcell: Cell volume (Ang**3)        :   1893.2269
New_DM. Step:     1
Initializing Density Matrix...

InitMesh: MESH =   120 x   120 x    90 =     1296000
InitMesh: Mesh cutoff (required, used) =   200.000   223.865 Ry

* Maximum dynamic memory allocated =   243 MB

stepf: Fermi-Dirac step function

siesta: Program's energy decomposition (eV):
siesta: Ebs     =     -5263.799374
siesta: Eions   =     15201.593291
siesta: Ena     =      4082.512511
siesta: Ekin    =      5059.728642
siesta: Enl     =       856.455004
siesta: DEna    =        -0.000006
siesta: DUscf   =         0.000000
siesta: DUext   =         0.000000
siesta: Exc     =     -4171.852047
siesta: eta*DQ  =         0.000000
siesta: Emadel  =         0.000000
siesta: Emeta   =         0.000000
siesta: Emolmec =         0.000000
siesta: Ekinion =         0.000000
siesta: Eharris =     -9324.670615
siesta: Etot    =     -9374.749187
siesta: FreeEng =     -9374.749187

siesta: iscf   Eharris(eV)      E_KS(eV)   FreeEng(eV)   dDmax  Ef(eV)
siesta:    1    -9324.6706    -9374.7492    -9374.7492  6.7993 -8.3886
timer: Routine,Calls,Time,% = IterSCF        1    4508.838  99.72
elaps: Routine,Calls,Wall,% = IterSCF        1     564.361  99.72
siesta:    2   -16757.5922    -8018.2745    -8018.3314  8.3495-12.7160
siesta:    3   -10026.1635    -9109.7479    -9109.8287  2.3123 -3.3995
siesta:    4    -9579.3023    -9147.7826    -9147.8211  1.8288 -5.3087
siesta:    5    -9558.6217    -9141.5960    -9141.6227  1.8726 -5.2863
siesta:    6    -9418.0914    -9130.2883    -9130.3504  1.5565 -4.9946
siesta:    7    -9400.3656    -9130.3647    -9130.3948  1.5349 -4.9414
siesta:    8    -9243.5607    -9146.4664    -9146.4878  1.0831 -5.6848
siesta:    9    -9231.7776    -9143.5838    -9143.6376  1.0488 -5.5908
siesta:   10    -9223.5723    -9141.1280    -9141.2036  1.0182 -5.5285
siesta:   11    -9176.9039    -9145.2282    -9145.3096  0.8895 -5.1742
siesta:   12    -9175.2915    -9135.7847    -9135.8399  0.7270 -5.0975
siesta:   13    -9173.7866    -9131.1084    -9131.1516  0.6350 -5.0521
siesta:   14    -9173.4169    -9129.3257    -9129.3804  0.6458 -5.0617
siesta:   15    -9174.9103    -9126.1192    -9126.1857  0.6366 -5.1840
siesta:   16    -9173.6577    -9124.3711    -9124.4306  0.5408 -5.1964
siesta:   17    -9172.3062    -9134.5264    -9134.5782  0.4486 -5.1006
siesta:   18    -9171.6699    -9139.4965    -9139.5586  0.3283 -5.1118
siesta:   19    -9171.1403    -9143.5171    -9143.5688  0.2691 -5.1696
siesta:   20    -9170.7099    -9146.0559    -9146.1374  0.2798 -5.2122
siesta:   21    -9170.5642    -9149.0338    -9149.1133  0.2069 -5.2467
siesta:   22    -9170.4958    -9149.7039    -9149.8183  0.4396 -5.2263
siesta:   23    -9170.4857    -9151.5173    -9151.6193  0.1247 -5.2069
siesta:   24    -9170.6376    -9154.3670    -9154.4685  0.3124 -5.2676
siesta:   25    -9170.4261    -9156.1064    -9156.1751  0.2319 -5.2067
siesta:   26    -9170.3371    -9157.7603    -9157.8519  0.0670 -5.2076
siesta:   27    -9170.3334    -9159.7020    -9159.8120  0.2147 -5.2046
siesta:   28    -9170.3109    -9163.3595    -9163.4625  0.0876 -5.2098
siesta:   29    -9170.3007    -9165.7947    -9165.9004  0.0812 -5.2226
siesta:   30    -9170.2966    -9166.6081    -9166.7179  0.0283 -5.2202
siesta:   31    -9170.2935    -9167.0866    -9167.1989  0.0151 -5.2207
siesta:   32    -9170.2929    -9168.0314    -9168.1440  0.0460 -5.2210
siesta:   33    -9170.2924    -9168.9285    -9169.0408  0.0311 -5.2208
siesta:   34    -9170.2910    -9169.3417    -9169.4546  0.0064 -5.2211
siesta:   35    -9170.2905    -9169.5760    -9169.6897  0.0066 -5.2197
siesta:   36    -9170.2898    -9169.7792    -9169.8926  0.0039 -5.2201
siesta:   37    -9170.2896    -9169.9421    -9170.0561  0.0064 -5.2199
siesta:   38    -9170.2899    -9170.0059    -9170.1200  0.0067 -5.2193
siesta:   39    -9170.2899    -9170.0765    -9170.1904  0.0072 -5.2192
siesta:   40    -9170.2898    -9170.1044    -9170.2182  0.0034 -5.2191
siesta:   41    -9170.2897    -9170.1614    -9170.2753  0.0008 -5.2193
siesta:   42    -9170.2898    -9170.1851    -9170.2990  0.0022 -5.2195
siesta:   43    -9170.2897    -9170.2527    -9170.3665  0.0021 -5.2199
siesta:   44    -9170.2897    -9170.2782    -9170.3922  0.0011 -5.2200
siesta:   45    -9170.2897    -9170.2826    -9170.3965  0.0002 -5.2199
siesta:   46    -9170.2897    -9170.2852    -9170.3991  0.0004 -5.2199
siesta:   47    -9170.2897    -9170.2850    -9170.3989  0.0001 -5.2199
siesta:   48    -9170.2897    -9170.2844    -9170.3983  0.0004 -5.2199
siesta:   49    -9170.2897    -9170.2798    -9170.3938  0.0001 -5.2198

siesta: E_KS(eV) =            -9170.2803

siesta: E_KS - E_eggbox =     -9170.2803

siesta: Atomic forces (eV/Ang):
----------------------------------------
   Tot   -0.180497   -0.254162    0.000000
----------------------------------------
   Max  421.309565
   Res  104.061608    sqrt( Sum f_i^2 / 3N )
----------------------------------------
   Max  421.309565    constrained

Stress-tensor-Voigt (kbar):     -536.85    -1936.50       -0.70       -0.73        0.00        0.00
(Free)E + p*V (eV/cell)    -8195.9101
Target enthalpy (eV/cell)    -9170.3943

siesta: Stress tensor (static) (eV/Ang**3):
        -0.335073   -0.000454    0.000000
        -0.000454   -1.208653    0.000000
         0.000000    0.000000   -0.000437

siesta: Pressure (static):        824.68332117  kBar

siesta: Stress tensor (total) (eV/Ang**3):
        -0.335073   -0.000454    0.000000
        -0.000454   -1.208653    0.000000
         0.000000    0.000000   -0.000437

siesta: Pressure (total):        824.68332117  kBar

siesta: Temp_ion =       0.000 K

* Maximum dynamic memory allocated =   260 MB
Computing bands...

siesta: Program's energy decomposition (eV):
siesta: Ebs     =     -4009.184150
siesta: Eions   =     15201.593291
siesta: Ena     =      4082.512511
siesta: Ekin    =      7527.599785
siesta: Enl     =      -739.196927
siesta: DEna    =      -613.116073
siesta: DUscf   =        80.005456
siesta: DUext   =         0.000000
siesta: Exc     =     -4306.491777
siesta: eta*DQ  =         0.000000
siesta: Emadel  =         0.000000
siesta: Emeta   =         0.000000
siesta: Emolmec =         0.000000
siesta: Ekinion =         0.000000
siesta: Eharris =     -9170.289711
siesta: Etot    =     -9170.280315
siesta: FreeEng =     -9170.394256

siesta: Final energy (eV):
siesta:  Band Struct. =   -4009.184150
siesta:       Kinetic =    7527.599785
siesta:       Hartree =   23298.009573
siesta:    Ext. field =       0.000000
siesta:   Exch.-corr. =   -4306.491777
siesta:  Ion-electron =  -53892.864675
siesta:       Ion-ion =   18203.466778
siesta:       Ekinion =       0.000000
siesta:         Total =   -9170.280315

siesta: Atomic forces (eV/Ang):
siesta:      1   -0.035546  414.057646    0.000000
siesta:      2   -0.026187  -98.131581    0.000000
siesta:      3   -3.669849   97.376459    0.000000
siesta:      4    5.961574 -404.666845    0.000000
siesta:      5    3.696018   97.393353    0.000000
siesta:      6   -5.937633 -404.669920    0.000000
siesta:      7   17.930903   -2.923598    0.000000
siesta:      8   22.072480 -290.344119    0.000000
siesta:      9  -17.949636   -2.929121    0.000000
siesta:     10  -22.043020 -290.317132    0.000000
siesta:     11   -0.245828  299.917272    0.000000
siesta:     12    0.803989  -95.726940    0.000000
siesta:     13   18.798063  288.944774    0.000000
siesta:     14   20.588980    5.302809    0.000000
siesta:     15    0.238653  299.898042    0.000000
siesta:     16   -0.802521  -95.724195    0.000000
siesta:     17   -0.034917  301.400471    0.000000
siesta:     18  -18.842849  288.920496    0.000000
siesta:     19  -20.604514    5.307715    0.000000
siesta:     20   21.876839 -307.274938    0.000000
siesta:     21  -21.858787 -307.312896    0.000000
siesta:     22    0.008145   98.219926    0.000000
siesta:     23   -0.020822 -299.755081    0.000000
siesta:     24   -0.014442  107.031826    0.000000
siesta:     25    0.008446 -408.462404    0.000000
siesta:     26    2.636176    2.018409    0.000000
siesta:     27    1.535693   -0.713844    0.000000
siesta:     28    2.536400    2.633152    0.000000
siesta:     29   -0.601669   -0.646931    0.000000
siesta:     30    0.153935   -0.626993    0.000000
siesta:     31    2.336869   -0.999100    0.000000
siesta:     32   -0.795492    0.297038    0.000000
siesta:     33    2.423801   -2.199389    0.000000
siesta:     34    0.247918    6.409866    0.000000
siesta:     35    0.227964   -6.438061    0.000000
siesta:     36    0.013388 -119.769885    0.000000
siesta:     37   29.839008  415.361417    0.000000
siesta:     38   21.473773   -2.725935    0.000000
siesta:     39   -0.941452    1.862966    0.000000
siesta:     40    0.974865   -0.453230    0.000000
siesta:     41   -0.735941    0.411287    0.000000
siesta:     42   -1.083374   -0.449449    0.000000
siesta:     43  -29.850219  415.396135    0.000000
siesta:     44  -21.487901   -2.737240    0.000000
siesta:     45   -0.008404  418.259913    0.000000
siesta:     46   -0.014100    3.429623    0.000000
siesta:     47   -1.094668   -0.239590    0.000000
siesta:     48   -1.166299    0.240710    0.000000
siesta:     49   -0.157049   -0.643171    0.000000
siesta:     50   -2.332544   -0.995721    0.000000
siesta:     51    0.933724    1.867420    0.000000
siesta:     52   -0.980430   -0.459853    0.000000
siesta:     53    1.088689   -0.228922    0.000000
siesta:     54    1.162154    0.244088    0.000000
siesta:     55    0.798556    0.303147    0.000000
siesta:     56   -2.425674   -2.186352    0.000000
siesta:     57    0.733384    0.414566    0.000000
siesta:     58    1.065617   -0.460679    0.000000
siesta:     59   -0.233985    6.410883    0.000000
siesta:     60   -0.222532   -6.442617    0.000000
siesta:     61   -2.527148    2.623882    0.000000
siesta:     62    0.601504   -0.656123    0.000000
siesta:     63    1.163329   -0.004051    0.000000
siesta:     64   -2.148845   -1.745261    0.000000
siesta:     65   -0.008368   -3.374801    0.000000
siesta:     66    0.008275 -421.309565    0.000000
siesta:     67   -1.154632    0.010055    0.000000
siesta:     68    2.121526   -1.761891    0.000000
siesta:     69   22.296720    1.469065    0.000000
siesta:     70  -22.309849    1.504007    0.000000
siesta:     71   -2.618991    2.012905    0.000000
siesta:     72   -1.551739   -0.698063    0.000000
siesta: ----------------------------------------
siesta:    Tot   -0.180497   -0.254162    0.000000

siesta: Stress tensor (static) (eV/Ang**3):
siesta:    -0.335073   -0.000454    0.000000
siesta:    -0.000454   -1.208653    0.000000
siesta:     0.000000    0.000000   -0.000437

siesta: Cell volume =       1893.226884 Ang**3

siesta: Pressure (static):
siesta:                Solid            Molecule  Units
siesta:           0.00560597          0.07767754  Ry/Bohr**3
siesta:           0.51472128          7.13208748  eV/Ang**3
siesta:         824.68332117      11426.98743122  kBar
(Free)E+ p_basis*V_orbitals  =       -9131.757804
(Free)Eharris+ p_basis*V_orbitals  =       -9131.767679

siesta: Electric dipole (a.u.)  =    0.000000    0.000000    0.000000
siesta: Electric dipole (Debye) =    0.000000    0.000000    0.000000

* Maximum dynamic memory allocated : Node    0 =   260 MB
* Maximum dynamic memory allocated : Node    1 =    90 MB
* Maximum dynamic memory allocated : Node    2 =    93 MB
* Maximum dynamic memory allocated : Node    3 =   247 MB
* Maximum dynamic memory allocated : Node    4 =   224 MB
* Maximum dynamic memory allocated : Node    5 =    82 MB
* Maximum dynamic memory allocated : Node    6 =    83 MB
* Maximum dynamic memory allocated : Node    7 =   204 MB

* Maximum memory occured during matrixMtoO                    

timer: CPU execution times:
timer:  Routine       Calls   Time/call    Tot.time        %
timer:  siesta            1  216498.015  216498.015   100.00
timer:  Setup             1       3.874       3.874     0.00
timer:  bands             3     269.191     807.573     0.37
timer:  writewave         1       0.040       0.040     0.00
timer:  KSV_init          1       0.009       0.009     0.00
timer:  IterMD            1  215680.880  215680.880    99.62
timer:  hsparse           1       0.401       0.401     0.00
timer:  overlap           1       7.783       7.783     0.00
timer:  IterSCF          49    4396.216  215414.578    99.50
timer:  kinefsm           2       4.064       8.128     0.00
timer:  nlefsm            2      22.156      44.313     0.02
timer:  DHSCF            50     143.929    7196.452     3.32
timer:  DHSCF1            1       0.995       0.995     0.00
timer:  DHSCF2            1      48.570      48.570     0.02
timer:  REORD           402       0.010       3.977     0.00
timer:  POISON           51       2.242     114.321     0.05
timer:  DHSCF3           50     141.964    7098.219     3.28
timer:  rhoofd           50      28.604    1430.216     0.66
timer:  cellXC           50       3.522     176.076     0.08
timer:  vmat             50      68.865    3443.260     1.59
timer:  MolMec            2       0.000       0.000     0.00
timer:  diagon           49    4250.627  208280.735    96.20
timer:  c-eigval      11440       6.678   76392.966    35.29
timer:  c-buildHS     11440       0.124    1414.100     0.65
timer:  cdiag         22759       6.869  156324.907    72.21
timer:  cdiag1        22759       0.427    9709.549     4.48
timer:  cdiag2        22759       1.911   43498.164    20.09
timer:  cdiag3        22759       3.938   89630.544    41.40
timer:  cdiag4        22759       0.224    5099.946     2.36
timer:  c-eigvec      11319       7.263   82211.696    37.97
timer:  c-buildD      11319       4.454   50419.659    23.29
timer:  DHSCF4            1      46.027      46.027     0.02
timer:  dfscf             1      43.324      43.324     0.02
timer:  overfsm           1       0.475       0.475     0.00
timer:  optical           1       4.992       4.992     0.00
  

elaps: ELAPSED times:
elaps:  Routine       Calls   Time/call    Tot.time        %
elaps:  siesta            1   27093.673   27093.673   100.00
elaps:  Setup             1       0.501       0.501     0.00
elaps:  bands             3      33.702     101.105     0.37
elaps:  writewave         1       0.006       0.006     0.00
elaps:  KSV_init          1       0.001       0.001     0.00
elaps:  IterMD            1   26991.407   26991.407    99.62
elaps:  hsparse           1       0.049       0.049     0.00
elaps:  overlap           1       0.979       0.979     0.00
elaps:  IterSCF          49     550.168   26958.231    99.50
elaps:  kinefsm           2       0.509       1.018     0.00
elaps:  nlefsm            2       2.781       5.562     0.02
elaps:  DHSCF            50      18.140     906.992     3.35
elaps:  DHSCF1            1       0.128       0.128     0.00
elaps:  DHSCF2            1       6.069       6.069     0.02
elaps:  REORD           402       0.001       0.539     0.00
elaps:  POISON           51       0.280      14.294     0.05
elaps:  DHSCF3           50      17.760     887.994     3.28
elaps:  rhoofd           50       8.369     418.451     1.54
elaps:  cellXC           50       0.440      21.983     0.08
elaps:  vmat             50       8.615     430.745     1.59
elaps:  MolMec            2       0.000       0.000     0.00
elaps:  diagon           49     531.962   26066.122    96.21
elaps:  c-eigval      11440       0.836    9558.271    35.28
elaps:  c-buildHS     11440       0.017     193.919     0.72
elaps:  cdiag         22759       0.848   19300.158    71.23
elaps:  cdiag1        22759       0.053    1206.226     4.45
elaps:  cdiag2        22759       0.239    5443.282    20.09
elaps:  cdiag3        22759       0.493   11229.546    41.45
elaps:  cdiag4        22759       0.028     639.317     2.36
elaps:  c-eigvec      11319       0.890   10071.391    37.17
elaps:  c-buildD      11319       0.577    6528.215    24.09
elaps:  DHSCF4            1      12.436      12.436     0.05
elaps:  dfscf             1      11.878      11.878     0.04
elaps:  overfsm           1       0.061       0.061     0.00
elaps:  optical           1       0.001       0.001     0.00
  
>> End of run:  21-APR-2016  21:37:18
