Siesta Version:                                        siesta-3.2-pl-3
Architecture  : x86_64-unknown-linux-gnu--unknown
Compiler flags: mpiifort -g -O2 -fPIC -xSSE4.1 -fp-model source -shared-intel 
PARALLEL version

* Running on    8 nodes in parallel
>> Start of run:  25-APR-2016  21:18:54

                           ***********************       
                           *  WELCOME TO SIESTA  *       
                           ***********************       

reinit: Reading from standard input
************************** Dump of input data file ****************************
#(1) General system descriptors
SystemName            GRP_doping    # Descriptive name of the system
SystemLabel           GRP_doping    # Short name for naming files
%include STRUCT.fdf
%include KPT.fdf
%include BASIS.fdf
#%include TS.fdf # for transiesta calculation
#(4) DFT, Grid, SCF
XC.functional         GGA           # LDA or GGA (default = LDA)
XC.authors            PBE           # CA (Ceperley-Aldr) = PZ
                                    #    (Perdew-Zunger) - LDA - Default
                                    # PW92 (Perdew-Wang-92) - LDA
                                    # PBE (Perdew-Burke-Ernzerhof) - GGA
MeshCutoff            200.000000    Ry      # Default: 50.0 Ry ~ 0.444 Bohr
                                    #         100.0 Ry ~ 0.314 Bohr
MaxSCFIterations      500           # Default: 50
DM.MixingWeight       0.05          # Default: 0.25
DM.NumberPulay        10            # Default: 0
DM.PulayOnFile        F             # SystemLabel.P1, SystemLabel.P2
DM.Tolerance          1.d-4         # Default: 1.d-4
DM.UseSaveDM          .true.        # because of the bug
SCFMustConverge       .true.
NeglNonOverlapInt     F             # Default: F
#(5) Eigenvalue problem: order-N or diagonalization
SolutionMethod        Diagon        # or Transiesta
ElectronicTemperature 300.0 K       # Default: 300.0 K
#(6) Molecular dynamics and relaxations
#MD.TypeOfRun          CG            # Type of dynamics:
#MD.VariableCell       F
#MD.NumCGsteps         0           # 0 for single-point / 100 for gopt
#MD.MaxCGDispl         0.2 Bohr      # Default: 0.2 Bohr
#MD.MaxForceTol        0.02 eV/Ang   # Default: 0.04 eV/Ang
#MD.MaxStressTol       1.0 GPa       # Default: 1.0 GPa
# Geometry Constraints
#%block GeometryConstraints
#	position from 1 to 44
#%endblock GeometryConstraints
BandLinesScale   pi/a
%block BandLines
 1   0.00000000  0.00000000  0.00000000
50   0.00000000  0.07809418  0.00000000
50   0.04509075  0.07809242  0.00000000
20   0.00000000  0.00000000  0.00000000
%endblock BandLines
************************** End of input data file *****************************

reinit: -----------------------------------------------------------------------
reinit: System Name: GRP_doping
reinit: -----------------------------------------------------------------------
reinit: System Label: GRP_doping                                                  
reinit: -----------------------------------------------------------------------

initatom: Reading input for the pseudopotentials and atomic orbitals ----------
 Species number:            1  Label: N Atomic number:           7
 Species number:            2  Label: C Atomic number:           6
Ground state valence configuration:   2s02  2p03
Reading pseudopotential information in formatted form from N.psf

Valence configuration for pseudopotential generation:
2s( 2.00) rc: 1.48
2p( 3.00) rc: 1.48
3d( 0.00) rc: 1.48
4f( 0.00) rc: 1.48
Ground state valence configuration:   2s02  2p02
Reading pseudopotential information in formatted form from C.psf

Valence configuration for pseudopotential generation:
2s( 2.00) rc: 1.54
2p( 2.00) rc: 1.54
3d( 0.00) rc: 1.54
4f( 0.00) rc: 1.54
For N, standard SIESTA heuristics set lmxkb to 3
 (one more than the basis l, including polarization orbitals).
Use PS.lmax or PS.KBprojectors blocks to override.
For C, standard SIESTA heuristics set lmxkb to 3
 (one more than the basis l, including polarization orbitals).
Use PS.lmax or PS.KBprojectors blocks to override.

<basis_specs>
===============================================================================
N                    Z=   7    Mass=  14.010        Charge= 0.17977+309
Lmxo=1 Lmxkb= 3    BasisType=split      Semic=F
L=0  Nsemic=0  Cnfigmx=2
          n=1  nzeta=2  polorb=0
            splnorm:   0.15000    
               vcte:    0.0000    
               rinn:    0.0000    
                rcs:    0.0000      0.0000    
            lambdas:    1.0000      1.0000    
L=1  Nsemic=0  Cnfigmx=2
          n=1  nzeta=2  polorb=1
            splnorm:   0.15000    
               vcte:    0.0000    
               rinn:    0.0000    
                rcs:    0.0000      0.0000    
            lambdas:    1.0000      1.0000    
-------------------------------------------------------------------------------
L=0  Nkbl=1  erefs: 0.17977+309
L=1  Nkbl=1  erefs: 0.17977+309
L=2  Nkbl=1  erefs: 0.17977+309
L=3  Nkbl=1  erefs: 0.17977+309
===============================================================================
</basis_specs>

atom: Called for N                     (Z =   7)

read_vps: Pseudopotential generation method:
read_vps: ATM3      Troullier-Martins                       
Total valence charge:    5.00000

read_vps: Pseudopotential includes a core correction:
read_vps: Pseudo-core for xc-correction

xc_check: Exchange-correlation functional:
xc_check: GGA Perdew, Burke & Ernzerhof 1996
V l=0 = -2*Zval/r beyond r=  1.4606
V l=1 = -2*Zval/r beyond r=  1.4606
V l=2 = -2*Zval/r beyond r=  1.4606
V l=3 = -2*Zval/r beyond r=  1.4606
All V_l potentials equal beyond r=  1.4606
This should be close to max(r_c) in ps generation
All pots = -2*Zval/r beyond r=  1.4606

VLOCAL1: 99.0% of the norm of Vloc inside     20.347 Ry
VLOCAL1: 99.9% of the norm of Vloc inside     46.372 Ry
atom: Maximum radius for 4*pi*r*r*local-pseudopot. charge    1.76189
atom: Maximum radius for r*vlocal+2*Zval:    1.53550
GHOST: No ghost state for L =  0
GHOST: No ghost state for L =  1
GHOST: No ghost state for L =  2
GHOST: No ghost state for L =  3

KBgen: Kleinman-Bylander projectors: 
   l= 0   rc=  1.634559   el= -1.363963   Ekb=  5.296955   kbcos=  0.335621
   l= 1   rc=  1.614250   el= -0.521451   Ekb= -5.259161   kbcos= -0.433408
   l= 2   rc=  1.718383   el=  0.001991   Ekb= -1.271464   kbcos= -0.007566
   l= 3   rc=  1.761893   el=  0.003093   Ekb= -0.494769   kbcos= -0.001015

KBgen: Total number of  Kleinman-Bylander projectors:   16
atom: -------------------------------------------------------------------------

atom: SANKEY-TYPE ORBITALS:
atom: Selected multiple-zeta basis: split     

SPLIT: Orbitals with angular momentum L= 0

SPLIT: Basis orbitals for state 2s

SPLIT: PAO cut-off radius determined from an
SPLIT: energy shift=  0.007350 Ry

   izeta = 1
                 lambda =    1.000000
                     rc =    4.071465
                 energy =   -1.356470
                kinetic =    1.176977
    potential(screened) =   -2.533447
       potential(ionic) =   -8.057990

   izeta = 2
                 rmatch =    2.905100
              splitnorm =    0.150000
                 energy =   -1.158343
                kinetic =    1.813009
    potential(screened) =   -2.971352
       potential(ionic) =   -8.901931

SPLIT: Orbitals with angular momentum L= 1

SPLIT: Basis orbitals for state 2p

SPLIT: PAO cut-off radius determined from an
SPLIT: energy shift=  0.007350 Ry

   izeta = 1
                 lambda =    1.000000
                     rc =    4.972977
                 energy =   -0.513884
                kinetic =    3.441732
    potential(screened) =   -3.955616
       potential(ionic) =   -9.287901

   izeta = 2
                 rmatch =    3.054066
              splitnorm =    0.150000
                 energy =   -0.318226
                kinetic =    5.125348
    potential(screened) =   -5.443573
       potential(ionic) =  -11.380999

POLgen: Perturbative polarization orbital with L=  2

POLgen: Polarization orbital for state 2p

   izeta = 1
                     rc =    4.972977
                 energy =    1.607437
                kinetic =    3.268125
    potential(screened) =   -1.660688
       potential(ionic) =   -5.973652
atom: Total number of Sankey-type orbitals: 13

atm_pop: Valence configuration (for local Pseudopot. screening):
 2s( 2.00)                                                            
 2p( 3.00)                                                            
Vna: chval, zval:    5.00000   5.00000

Vna:  Cut-off radius for the neutral-atom potential:   4.972977
comcore: Pseudo-core radius Rcore=  1.554824

atom: _________________________________________________________________________

<basis_specs>
===============================================================================
C                    Z=   6    Mass=  12.010        Charge= 0.17977+309
Lmxo=1 Lmxkb= 3    BasisType=split      Semic=F
L=0  Nsemic=0  Cnfigmx=2
          n=1  nzeta=2  polorb=0
            splnorm:   0.15000    
               vcte:    0.0000    
               rinn:    0.0000    
                rcs:    0.0000      0.0000    
            lambdas:    1.0000      1.0000    
L=1  Nsemic=0  Cnfigmx=2
          n=1  nzeta=2  polorb=1
            splnorm:   0.15000    
               vcte:    0.0000    
               rinn:    0.0000    
                rcs:    0.0000      0.0000    
            lambdas:    1.0000      1.0000    
-------------------------------------------------------------------------------
L=0  Nkbl=1  erefs: 0.17977+309
L=1  Nkbl=1  erefs: 0.17977+309
L=2  Nkbl=1  erefs: 0.17977+309
L=3  Nkbl=1  erefs: 0.17977+309
===============================================================================
</basis_specs>

atom: Called for C                     (Z =   6)

read_vps: Pseudopotential generation method:
read_vps: ATM3      Troullier-Martins                       
Total valence charge:    4.00000

read_vps: Pseudopotential includes a core correction:
read_vps: Pseudo-core for xc-correction

xc_check: Exchange-correlation functional:
xc_check: GGA Perdew, Burke & Ernzerhof 1996
V l=0 = -2*Zval/r beyond r=  1.5227
V l=1 = -2*Zval/r beyond r=  1.5227
V l=2 = -2*Zval/r beyond r=  1.5227
V l=3 = -2*Zval/r beyond r=  1.5038
All V_l potentials equal beyond r=  1.5227
This should be close to max(r_c) in ps generation
All pots = -2*Zval/r beyond r=  1.5227

VLOCAL1: 99.0% of the norm of Vloc inside     18.722 Ry
VLOCAL1: 99.9% of the norm of Vloc inside     42.668 Ry
atom: Maximum radius for 4*pi*r*r*local-pseudopot. charge    1.83678
atom: Maximum radius for r*vlocal+2*Zval:    1.58088
GHOST: No ghost state for L =  0
GHOST: No ghost state for L =  1
GHOST: No ghost state for L =  2
GHOST: No ghost state for L =  3

KBgen: Kleinman-Bylander projectors: 
   l= 0   rc=  1.704034   el= -1.009801   Ekb=  5.335044   kbcos=  0.316824
   l= 1   rc=  1.704034   el= -0.388707   Ekb= -3.785862   kbcos= -0.366464
   l= 2   rc=  1.791422   el=  0.001971   Ekb= -0.970471   kbcos= -0.009212
   l= 3   rc=  1.859892   el=  0.003065   Ekb= -0.399525   kbcos= -0.001223

KBgen: Total number of  Kleinman-Bylander projectors:   16
atom: -------------------------------------------------------------------------

atom: SANKEY-TYPE ORBITALS:
atom: Selected multiple-zeta basis: split     

SPLIT: Orbitals with angular momentum L= 0

SPLIT: Basis orbitals for state 2s

SPLIT: PAO cut-off radius determined from an
SPLIT: energy shift=  0.007350 Ry

   izeta = 1
                 lambda =    1.000000
                     rc =    4.632753
                 energy =   -1.002270
                kinetic =    0.855760
    potential(screened) =   -1.858031
       potential(ionic) =   -5.417575

   izeta = 2
                 rmatch =    3.431921
              splitnorm =    0.150000
                 energy =   -0.867111
                kinetic =    1.300804
    potential(screened) =   -2.167915
       potential(ionic) =   -5.962684

SPLIT: Orbitals with angular momentum L= 1

SPLIT: Basis orbitals for state 2p

SPLIT: PAO cut-off radius determined from an
SPLIT: energy shift=  0.007350 Ry

   izeta = 1
                 lambda =    1.000000
                     rc =    5.658549
                 energy =   -0.381140
                kinetic =    2.399701
    potential(screened) =   -2.780841
       potential(ionic) =   -6.206085

   izeta = 2
                 rmatch =    3.653288
              splitnorm =    0.150000
                 energy =   -0.249149
                kinetic =    3.542762
    potential(screened) =   -3.791911
       potential(ionic) =   -7.581078

POLgen: Perturbative polarization orbital with L=  2

POLgen: Polarization orbital for state 2p

   izeta = 1
                     rc =    5.658549
                 energy =    1.109913
                kinetic =    2.304789
    potential(screened) =   -1.194876
       potential(ionic) =   -4.013592
atom: Total number of Sankey-type orbitals: 13

atm_pop: Valence configuration (for local Pseudopot. screening):
 2s( 2.00)                                                            
 2p( 2.00)                                                            
Vna: chval, zval:    4.00000   4.00000

Vna:  Cut-off radius for the neutral-atom potential:   5.658549
comcore: Pseudo-core radius Rcore=  1.791422

atom: _________________________________________________________________________

prinput: Basis input ----------------------------------------------------------

PAO.BasisType split     

%block ChemicalSpeciesLabel
    1    7 N                       # Species index, atomic number, species label
    2    6 C                       # Species index, atomic number, species label
%endblock ChemicalSpeciesLabel

%block PAO.Basis                 # Define Basis set
N                     2                    # Species label, number of l-shells
 n=2   0   2                         # n, l, Nzeta 
   4.071      2.905   
   1.000      1.000   
 n=2   1   2 P   1                   # n, l, Nzeta, Polarization, NzetaPol
   4.973      3.054   
   1.000      1.000   
C                     2                    # Species label, number of l-shells
 n=2   0   2                         # n, l, Nzeta 
   4.633      3.432   
   1.000      1.000   
 n=2   1   2 P   1                   # n, l, Nzeta, Polarization, NzetaPol
   5.659      3.653   
   1.000      1.000   
%endblock PAO.Basis

prinput: ----------------------------------------------------------------------

coor:   Atomic-coordinates input format  =     Fractional

siesta: Atomic coordinates (Bohr) and species
siesta:      2.30256  38.89134   0.00000  1        1
siesta:      2.30256  41.57980   0.00000  1        2
siesta:      6.95932  30.82560   0.00000  1        3
siesta:      6.95932  33.51406   0.00000  1        4
siesta:     -2.35420   6.62836   0.00000  1        5
siesta:     -2.35420   9.31683   0.00000  1        6
siesta:     -0.02582  10.66124   0.00000  1        7
siesta:     -0.02582  13.34970   0.00000  1        8
siesta:      2.30256  14.69411   0.00000  1        9
siesta:      2.30256  17.38257   0.00000  1       10
siesta:      2.30256  22.75985   0.00000  1       11
siesta:      2.30256  25.44831   0.00000  1       12
siesta:    -11.66772  22.75985   0.00000  1       13
siesta:    -11.66772  25.44831   0.00000  1       14
siesta:     -9.33934  26.79272   0.00000  1       15
siesta:     -9.33934  29.48119   0.00000  1       16
siesta:      4.63094  26.79272   0.00000  1       17
siesta:      4.63094  29.48119   0.00000  1       18
siesta:     -2.35420  30.82560   0.00000  1       19
siesta:     -2.35420  33.51406   0.00000  1       20
siesta:     -7.01096  30.82560   0.00000  1       21
siesta:     -7.01096  33.51406   0.00000  1       22
siesta:     -0.02582  34.85847   0.00000  1       23
siesta:     -0.02582  37.54693   0.00000  1       24
siesta:     -0.02582   2.59549   0.00000  2       25
siesta:     -0.02582   5.28395   0.00000  2       26
siesta:     -2.35420  38.89134   0.00000  2       27
siesta:     -2.35420  41.57980   0.00000  2       28
siesta:      4.63094  34.85847   0.00000  2       29
siesta:      4.63094  37.54693   0.00000  2       30
siesta:      9.28770  26.79272   0.00000  2       31
siesta:      9.28770  29.48119   0.00000  2       32
siesta:     -4.68258  34.85847   0.00000  2       33
siesta:     -4.68258  37.54693   0.00000  2       34
siesta:      2.30256   6.62836   0.00000  2       35
siesta:      2.30256   9.31683   0.00000  2       36
siesta:      4.63094  10.66124   0.00000  2       37
siesta:      4.63094  13.34970   0.00000  2       38
siesta:      6.95932  14.69411   0.00000  2       39
siesta:      6.95932  17.38257   0.00000  2       40
siesta:      9.28770  18.72698   0.00000  2       41
siesta:      9.28770  21.41544   0.00000  2       42
siesta:     11.61608  22.75985   0.00000  2       43
siesta:     11.61608  25.44831   0.00000  2       44
siesta:      4.63094  18.72698   0.00000  2       45
siesta:      4.63094  21.41544   0.00000  2       46
siesta:      6.95932  22.75985   0.00000  2       47
siesta:      6.95932  25.44831   0.00000  2       48
siesta:     -4.68258  10.66124   0.00000  2       49
siesta:     -4.68258  13.34970   0.00000  2       50
siesta:     -2.35420  14.69411   0.00000  2       51
siesta:     -2.35420  17.38257   0.00000  2       52
siesta:     -0.02582  18.72698   0.00000  2       53
siesta:     -0.02582  21.41544   0.00000  2       54
siesta:     -7.01096  14.69411   0.00000  2       55
siesta:     -7.01096  17.38257   0.00000  2       56
siesta:     -4.68258  18.72698   0.00000  2       57
siesta:     -4.68258  21.41544   0.00000  2       58
siesta:     -2.35420  22.75985   0.00000  2       59
siesta:     -2.35420  25.44831   0.00000  2       60
siesta:     -9.33934  18.72698   0.00000  2       61
siesta:     -9.33934  21.41544   0.00000  2       62
siesta:     -7.01096  22.75985   0.00000  2       63
siesta:     -7.01096  25.44831   0.00000  2       64
siesta:     -0.02582  26.79272   0.00000  2       65
siesta:     -0.02582  29.48119   0.00000  2       66
siesta:     -4.68258  26.79272   0.00000  2       67
siesta:     -4.68258  29.48119   0.00000  2       68
siesta:      2.30256  30.82560   0.00000  2       69
siesta:      2.30256  33.51406   0.00000  2       70
siesta:     -0.02582  42.92421   0.00000  2       71
siesta:     -0.02582  45.61267   0.00000  2       72

siesta: System type = slab      

initatomlists: Number of atoms, orbitals, and projectors:     72   936  1152

siesta: ******************** Simulation parameters ****************************
siesta:
siesta: The following are some of the parameters of the simulation.
siesta: A complete list of the parameters used, including default values,
siesta: can be found in file out.fdf
siesta:
redata: Non-Collinear-spin run           =     F
redata: SpinPolarized (Up/Down) run      =     F
redata: Number of spin components        =     1
redata: Long output                      =     F
redata: Number of Atomic Species         =        2
redata: Charge density info will appear in .RHO file
redata: Write Mulliken Pop.              =     NO
redata: Mesh Cutoff                      =   200.0000  Ry
redata: Net charge of the system         =     0.0000 |e|
redata: Max. number of SCF Iter          =      500
redata: SCF convergence failure will abort job
redata: Performing Pulay mixing using    =    10 iterations
redata: Mix DM in first SCF step ?       =     F
redata: Write Pulay info on disk?        =     F
redata: Discard 1st Pulay DM after  kick =     F
redata: New DM Mixing Weight             =     0.0500
redata: New DM Occupancy tolerance       = 0.000000000001
redata: No kicks to SCF
redata: DM Mixing Weight for Kicks       =     0.5000
redata: DM Tolerance for SCF             =     0.000100
redata: Require Energy convergence for SCF =     F
redata: DM Energy tolerance for SCF      =     0.000100 eV
redata: Require Harris convergence for SCF =     F
redata: DM Harris energy tolerance for SCF =     0.000100 eV
redata: Using Saved Data (generic)   =     F
redata: Use continuation files for DM    =     T
redata: Neglect nonoverlap interactions  =     F
redata: Method of Calculation            =     Diagonalization
redata: Divide and Conquer               =     T
redata: Electronic Temperature           =     0.0019  Ry
redata: Fix the spin of the system       =     F
redata: Dynamics option                  =     Verlet MD run
redata: Initial MD time step             =        1
redata:   Final MD time step             =        1
redata: Length of MD time step           =     1.0000  fs
redata: Initial Temperature of MD run    =     0.0000  K
redata: Perform a MD quench              =     F
redata: ***********************************************************************
Total number of electrons:   312.000000
Total ionic charge:   312.000000

* ProcessorY, Blocksize:    2  24

k-point displ. along   1 input, could be:     0.50    0.00
k-point displ. along   2 input, could be:     0.50    0.00
 Kpoints in:          231 . Kpoints trimmed:          231

siesta: k-grid: Number of k-points =   231
siesta: k-grid: Cutoff (effective) =     5.000 Ang
siesta: k-grid: Supercell and displacements
siesta: k-grid:   21   0   0      0.500
siesta: k-grid:    0  21   0      0.500
siesta: k-grid:    0   0   1      0.000
Naive supercell factors:     2    2    2

superc: Internal auxiliary supercell:     2 x     2 x     2  =       8
superc: Number of atoms, orbitals, and projectors:    576   7488   9216

* Maximum dynamic memory allocated =     4 MB

siesta:                 ==============================
                            Begin MD step =      1
                        ==============================

superc: Internal auxiliary supercell:     2 x     2 x     2  =       8
superc: Number of atoms, orbitals, and projectors:    576   7488   9216

outcell: Unit cell vectors (Ang):
       12.804619    7.392750    0.000000
        0.000000   14.785500    0.000000
        0.000000    0.000000   10.000000

outcell: Cell vector modules (Ang)   :   14.785500   14.785500   10.000000
outcell: Cell angles (23,13,12) (deg):     90.0000     90.0000     60.0000
outcell: Cell volume (Ang**3)        :   1893.2269
New_DM. Step:     1
Initializing Density Matrix...

InitMesh: MESH =   120 x   120 x    90 =     1296000
InitMesh: Mesh cutoff (required, used) =   200.000   223.865 Ry

* Maximum dynamic memory allocated =   176 MB

stepf: Fermi-Dirac step function

siesta: Program's energy decomposition (eV):
siesta: Ebs     =     -6365.639251
siesta: Eions   =     22260.935331
siesta: Ena     =      4980.404721
siesta: Ekin    =      8392.322035
siesta: Enl     =       -94.226899
siesta: DEna    =        -0.000015
siesta: DUscf   =         0.000000
siesta: DUext   =         0.000000
siesta: Exc     =     -4783.095022
siesta: eta*DQ  =         0.000000
siesta: Emadel  =         0.000000
siesta: Emeta   =         0.000000
siesta: Emolmec =         0.000000
siesta: Ekinion =         0.000000
siesta: Eharris =    -13333.027380
siesta: Etot    =    -13765.530511
siesta: FreeEng =    -13765.530511

siesta: iscf   Eharris(eV)      E_KS(eV)   FreeEng(eV)   dDmax  Ef(eV)
siesta:    1   -13333.0274   -13765.5305   -13765.5305  5.4209 -6.5277
timer: Routine,Calls,Time,% = IterSCF        1    3365.000  99.62
elaps: Routine,Calls,Wall,% = IterSCF        1     421.502  99.61
siesta:    2   -15151.4912   -12930.7378   -12930.7392  9.3615 -2.2308
siesta:    3   -13228.4128   -13482.3512   -13482.4205  1.5940 -4.2379
siesta:    4   -13216.9340   -13381.2627   -13381.2711  0.8951 -3.8103
siesta:    5   -13198.4889   -13340.8458   -13340.8899  0.7499 -3.8972
siesta:    6   -13195.6309   -13319.1695   -13319.2037  0.6871 -3.8746
siesta:    7   -13193.3297   -13304.4327   -13304.4759  0.6182 -3.9139
siesta:    8   -13192.7340   -13245.5133   -13245.5678  0.4353 -3.7961
siesta:    9   -13191.0964   -13233.2765   -13233.3349  0.3634 -3.7701
siesta:   10   -13191.0760   -13215.8208   -13215.8696  0.6731 -3.6073
siesta:   11   -13190.5299   -13200.2536   -13200.2714  0.5486 -3.5956
siesta:   12   -13190.8944   -13187.8817   -13187.9143  0.4715 -3.6352
siesta:   13   -13190.3892   -13182.5481   -13182.5505  0.4140 -3.6798
siesta:   14   -13189.9158   -13182.7190   -13182.7235  0.2717 -3.7856
siesta:   15   -13189.8319   -13181.8499   -13181.8618  0.2050 -3.7611
siesta:   16   -13189.7499   -13182.3156   -13182.3448  0.2480 -3.7150
siesta:   17   -13189.6320   -13182.5417   -13182.5937  0.1675 -3.7423
siesta:   18   -13189.6014   -13183.0060   -13183.0591  0.1305 -3.7349
siesta:   19   -13189.6206   -13184.8499   -13184.9069  0.2730 -3.6953
siesta:   20   -13189.6387   -13187.0015   -13187.0572  0.2793 -3.6870
siesta:   21   -13189.5701   -13187.6637   -13187.7126  0.0724 -3.7117
siesta:   22   -13189.5765   -13188.6494   -13188.7094  0.0916 -3.7175
siesta:   23   -13189.5641   -13189.1556   -13189.2105  0.0543 -3.7182
siesta:   24   -13189.5606   -13189.4106   -13189.4717  0.0398 -3.7203
siesta:   25   -13189.5576   -13189.1919   -13189.2545  0.0194 -3.7199
siesta:   26   -13189.5590   -13189.2881   -13189.3518  0.0190 -3.7198
siesta:   27   -13189.5583   -13189.5902   -13189.6526  0.0137 -3.7188
siesta:   28   -13189.5573   -13189.6642   -13189.7271  0.0094 -3.7179
siesta:   29   -13189.5578   -13189.6568   -13189.7204  0.0092 -3.7189
siesta:   30   -13189.5578   -13189.5647   -13189.6279  0.0085 -3.7205
siesta:   31   -13189.5571   -13189.6647   -13189.7278  0.0052 -3.7194
siesta:   32   -13189.5572   -13189.6889   -13189.7526  0.0021 -3.7191
siesta:   33   -13189.5572   -13189.6518   -13189.7155  0.0008 -3.7187
siesta:   34   -13189.5572   -13189.6267   -13189.6904  0.0008 -3.7185
siesta:   35   -13189.5572   -13189.6167   -13189.6803  0.0008 -3.7180
siesta:   36   -13189.5572   -13189.6178   -13189.6814  0.0004 -3.7181
siesta:   37   -13189.5571   -13189.6004   -13189.6640  0.0002 -3.7179
siesta:   38   -13189.5572   -13189.5856   -13189.6492  0.0002 -3.7179
siesta:   39   -13189.5572   -13189.5656   -13189.6293  0.0001 -3.7179
siesta:   40   -13189.5572   -13189.5641   -13189.6277  0.0001 -3.7179

siesta: E_KS(eV) =           -13189.5644

siesta: E_KS - E_eggbox =    -13189.5644

siesta: Atomic forces (eV/Ang):
----------------------------------------
   Tot   -0.078872   -0.039117    0.000000
----------------------------------------
   Max  776.106948
   Res  184.457138    sqrt( Sum f_i^2 / 3N )
----------------------------------------
   Max  776.106948    constrained

Stress-tensor-Voigt (kbar):     -599.25    -3325.33       -0.04       28.69        0.00        0.00
(Free)E + p*V (eV/cell)   -11643.7899
Target enthalpy (eV/cell)   -13189.6280

siesta: Stress tensor (static) (eV/Ang**3):
        -0.374016    0.017909    0.000000
         0.017909   -2.075487    0.000000
         0.000000    0.000000   -0.000026

siesta: Pressure (static):       1308.20688684  kBar

siesta: Stress tensor (total) (eV/Ang**3):
        -0.374016    0.017909    0.000000
         0.017909   -2.075487    0.000000
         0.000000    0.000000   -0.000026

siesta: Pressure (total):       1308.20688684  kBar

siesta: Temp_ion =       0.000 K

* Maximum dynamic memory allocated =   193 MB
Computing bands...

siesta: Program's energy decomposition (eV):
siesta: Ebs     =     -5174.342248
siesta: Eions   =     22260.935331
siesta: Ena     =      4980.404721
siesta: Ekin    =     11560.683923
siesta: Enl     =     -1824.534961
siesta: DEna    =      -793.768198
siesta: DUscf   =       106.694004
siesta: DUext   =         0.000000
siesta: Exc     =     -4958.108514
siesta: eta*DQ  =         0.000000
siesta: Emadel  =         0.000000
siesta: Emeta   =         0.000000
siesta: Emolmec =         0.000000
siesta: Ekinion =         0.000000
siesta: Eharris =    -13189.557159
siesta: Etot    =    -13189.564357
siesta: FreeEng =    -13189.627976

siesta: Final energy (eV):
siesta:  Band Struct. =   -5174.342248
siesta:       Kinetic =   11560.683923
siesta:       Hartree =   37706.222587
siesta:    Ext. field =       0.000000
siesta:   Exch.-corr. =   -4958.108514
siesta:  Ion-electron =  -86501.583363
siesta:       Ion-ion =   29003.221011
siesta:       Ekinion =       0.000000
siesta:         Total =  -13189.564357

siesta: Atomic forces (eV/Ang):
siesta:      1    3.526468  109.158045    0.000000
siesta:      2   23.377553 -752.689216    0.000000
siesta:      3    4.134781   -0.154600    0.000000
siesta:      4   -2.909974   -1.752533    0.000000
siesta:      5  -27.308689  753.557459    0.000000
siesta:      6   -3.013352 -109.659189    0.000000
siesta:      7   -2.136891  759.071307    0.000000
siesta:      8   -5.159954 -112.699580    0.000000
siesta:      9    0.624745  774.647860    0.000000
siesta:     10   26.106915    3.144204    0.000000
siesta:     11    1.286985   -0.871293    0.000000
siesta:     12    0.320637    1.676164    0.000000
siesta:     13    1.932924    2.880755    0.000000
siesta:     14   -0.188790   -1.903961    0.000000
siesta:     15    3.321209   -0.256073    0.000000
siesta:     16   -1.481138   -0.025869    0.000000
siesta:     17    0.642969   -1.477794    0.000000
siesta:     18   -3.701313   -2.823764    0.000000
siesta:     19  -26.231484   -1.926659    0.000000
siesta:     20    0.348561 -776.106948    0.000000
siesta:     21    2.287521    0.190299    0.000000
siesta:     22    1.300735   -3.012233    0.000000
siesta:     23    4.891759  110.317991    0.000000
siesta:     24    1.753398 -757.377572    0.000000
siesta:     25  -23.662787  549.114152    0.000000
siesta:     26    3.614088 -122.093276    0.000000
siesta:     27   -5.935758  121.089525    0.000000
siesta:     28    8.207800 -549.059801    0.000000
siesta:     29   25.081730    5.564927    0.000000
siesta:     30   33.860406 -559.032506    0.000000
siesta:     31    0.379414    2.050039    0.000000
siesta:     32   -1.656301    2.674669    0.000000
siesta:     33  -27.115983    5.890927    0.000000
siesta:     34  -13.103576 -552.403495    0.000000
siesta:     35   -3.071797  548.060734    0.000000
siesta:     36    5.672655 -120.951164    0.000000
siesta:     37   13.786249  552.561270    0.000000
siesta:     38   30.513318   -4.851571    0.000000
siesta:     39   -3.119523   -0.895714    0.000000
siesta:     40    1.647085   -0.115343    0.000000
siesta:     41   -1.256726   -0.465328    0.000000
siesta:     42    1.501352   -2.008724    0.000000
siesta:     43    0.035217    7.179757    0.000000
siesta:     44   -0.222960   -6.491476    0.000000
siesta:     45   -1.850926    4.129634    0.000000
siesta:     46   -0.495096   -0.442753    0.000000
siesta:     47   -0.949761    1.013558    0.000000
siesta:     48   -0.425158   -0.544010    0.000000
siesta:     49  -34.524343  559.880062    0.000000
siesta:     50  -28.023782   -4.046183    0.000000
siesta:     51  -25.591332  565.970417    0.000000
siesta:     52  -25.346620   -4.153997    0.000000
siesta:     53  -14.442866  570.843274    0.000000
siesta:     54   -1.426813    2.207199    0.000000
siesta:     55    2.371549   -1.855991    0.000000
siesta:     56   -1.887013    0.335603    0.000000
siesta:     57    1.601013    2.338815    0.000000
siesta:     58   -0.607759    0.274247    0.000000
siesta:     59    1.186161   -0.980054    0.000000
siesta:     60   -0.118727    0.614465    0.000000
siesta:     61    0.197219   -0.043148    0.000000
siesta:     62   -2.007811    0.731424    0.000000
siesta:     63    0.326429    0.501074    0.000000
siesta:     64   -1.549129    0.272297    0.000000
siesta:     65    1.023932   -0.157694    0.000000
siesta:     66   20.385865 -575.499606    0.000000
siesta:     67    0.207991    0.311052    0.000000
siesta:     68   -0.101711   -1.769231    0.000000
siesta:     69   23.443950    5.748122    0.000000
siesta:     70   24.225767 -567.718295    0.000000
siesta:     71   -3.475413  123.576613    0.000000
siesta:     72   18.896039 -549.300412    0.000000
siesta: ----------------------------------------
siesta:    Tot   -0.078872   -0.039117    0.000000

siesta: Stress tensor (static) (eV/Ang**3):
siesta:    -0.374016    0.017909    0.000000
siesta:     0.017909   -2.075487    0.000000
siesta:     0.000000    0.000000   -0.000026

siesta: Cell volume =       1893.226884 Ang**3

siesta: Pressure (static):
siesta:                Solid            Molecule  Units
siesta:           0.00889283          0.14636043  Ry/Bohr**3
siesta:           0.81650969         13.43831669  eV/Ang**3
siesta:        1308.20688684      21530.78972696  kBar
(Free)E+ p_basis*V_orbitals  =      -13162.321485
(Free)Eharris+ p_basis*V_orbitals  =      -13162.314519

siesta: Electric dipole (a.u.)  =    0.000000    0.000000    0.000000
siesta: Electric dipole (Debye) =    0.000000    0.000000    0.000000

* Maximum dynamic memory allocated : Node    0 =   193 MB
* Maximum dynamic memory allocated : Node    1 =    69 MB
* Maximum dynamic memory allocated : Node    2 =    73 MB
* Maximum dynamic memory allocated : Node    3 =   185 MB
* Maximum dynamic memory allocated : Node    4 =   190 MB
* Maximum dynamic memory allocated : Node    5 =    72 MB
* Maximum dynamic memory allocated : Node    6 =    72 MB
* Maximum dynamic memory allocated : Node    7 =   172 MB

* Maximum memory occured during matrixMtoO                    

timer: CPU execution times:
timer:  Routine       Calls   Time/call    Tot.time        %
timer:  siesta            1  132720.827  132720.827   100.00
timer:  Setup             1       5.143       5.143     0.00
timer:  bands             3     244.261     732.784     0.55
timer:  writewave         1       0.044       0.044     0.00
timer:  KSV_init          1       0.005       0.005     0.00
timer:  IterMD            1  131977.666  131977.666    99.44
timer:  hsparse           1       0.282       0.282     0.00
timer:  overlap           1       7.118       7.118     0.01
timer:  IterSCF          40    3295.894  131835.771    99.33
timer:  kinefsm           2       3.674       7.347     0.01
timer:  nlefsm            2      16.955      33.909     0.03
timer:  DHSCF            41      69.557    2851.822     2.15
timer:  DHSCF1            1       0.747       0.747     0.00
timer:  DHSCF2            1      29.773      29.773     0.02
timer:  REORD           330       0.005       1.698     0.00
timer:  POISON           42       0.863      36.245     0.03
timer:  DHSCF3           41      68.125    2793.136     2.10
timer:  rhoofd           41      14.840     608.427     0.46
timer:  cellXC           41       3.325     136.306     0.10
timer:  vmat             41      31.639    1297.208     0.98
timer:  MolMec            2       0.000       0.000     0.00
timer:  diagon           40    3224.476  128979.042    97.18
timer:  c-eigval       9361       6.032   56469.812    42.55
timer:  c-buildHS      9361       0.046     432.717     0.33
timer:  cdiag         18601       6.163  114631.761    86.37
timer:  cdiag1        18601       0.385    7160.148     5.39
timer:  cdiag2        18601       1.768   32895.011    24.79
timer:  cdiag3        18601       3.743   69618.891    52.46
timer:  cdiag4        18601       0.152    2827.946     2.13
timer:  c-eigvec       9240       6.379   58937.416    44.41
timer:  c-buildD       9240       1.543   14258.782    10.74
timer:  DHSCF4            1      27.342      27.342     0.02
timer:  dfscf             1      25.494      25.494     0.02
timer:  overfsm           1       0.371       0.371     0.00
timer:  optical           1       4.598       4.598     0.00
  

elaps: ELAPSED times:
elaps:  Routine       Calls   Time/call    Tot.time        %
elaps:  siesta            1   16621.867   16621.867   100.00
elaps:  Setup             1       0.686       0.686     0.00
elaps:  bands             3      30.609      91.828     0.55
elaps:  writewave         1       0.006       0.006     0.00
elaps:  KSV_init          1       0.001       0.001     0.00
elaps:  IterMD            1   16528.749   16528.749    99.44
elaps:  hsparse           1       0.035       0.035     0.00
elaps:  overlap           1       0.893       0.893     0.01
elaps:  IterSCF          40     412.777   16511.093    99.33
elaps:  kinefsm           2       0.459       0.917     0.01
elaps:  nlefsm            2       2.055       4.110     0.02
elaps:  DHSCF            41       8.795     360.614     2.17
elaps:  DHSCF1            1       0.095       0.095     0.00
elaps:  DHSCF2            1       3.727       3.727     0.02
elaps:  REORD           330       0.001       0.218     0.00
elaps:  POISON           42       0.108       4.549     0.03
elaps:  DHSCF3           41       8.532     349.822     2.10
elaps:  rhoofd           41       4.022     164.895     0.99
elaps:  cellXC           41       0.416      17.067     0.10
elaps:  vmat             41       3.963     162.471     0.98
elaps:  MolMec            2       0.000       0.000     0.00
elaps:  diagon           40     403.808   16152.337    97.18
elaps:  c-eigval       9361       0.755    7071.808    42.55
elaps:  c-buildHS      9361       0.006      55.891     0.34
elaps:  cdiag         18601       0.772   14354.773    86.36
elaps:  cdiag1        18601       0.048     900.576     5.42
elaps:  cdiag2        18601       0.222    4120.260    24.79
elaps:  cdiag3        18601       0.469    8730.200    52.52
elaps:  cdiag4        18601       0.019     346.250     2.08
elaps:  c-eigvec       9240       0.799    7385.011    44.43
elaps:  c-buildD       9240       0.193    1781.078    10.72
elaps:  DHSCF4            1       6.871       6.871     0.04
elaps:  dfscf             1       6.483       6.483     0.04
elaps:  overfsm           1       0.045       0.045     0.00
elaps:  optical           1       0.001       0.001     0.00
  
>> End of run:  26-APR-2016   1:55:56
