Siesta Version:                                        siesta-3.2-pl-3
Architecture  : x86_64-unknown-linux-gnu--unknown
Compiler flags: mpiifort -g -O2 -fPIC -xSSE4.1 -fp-model source -shared-intel 
PARALLEL version

* Running on    8 nodes in parallel
>> Start of run:   2-MAY-2016   4:05:27

                           ***********************       
                           *  WELCOME TO SIESTA  *       
                           ***********************       

reinit: Reading from standard input
************************** Dump of input data file ****************************
#(1) General system descriptors
SystemName            GRP_doping    # Descriptive name of the system
SystemLabel           GRP_doping    # Short name for naming files
%include STRUCT.fdf
%include KPT.fdf
%include BASIS.fdf
#%include TS.fdf # for transiesta calculation
#(4) DFT, Grid, SCF
XC.functional         GGA           # LDA or GGA (default = LDA)
XC.authors            PBE           # CA (Ceperley-Aldr) = PZ
                                    #    (Perdew-Zunger) - LDA - Default
                                    # PW92 (Perdew-Wang-92) - LDA
                                    # PBE (Perdew-Burke-Ernzerhof) - GGA
MeshCutoff            200.000000    Ry      # Default: 50.0 Ry ~ 0.444 Bohr
                                    #         100.0 Ry ~ 0.314 Bohr
MaxSCFIterations      500           # Default: 50
DM.MixingWeight       0.05          # Default: 0.25
DM.NumberPulay        10            # Default: 0
DM.PulayOnFile        F             # SystemLabel.P1, SystemLabel.P2
DM.Tolerance          1.d-4         # Default: 1.d-4
DM.UseSaveDM          .true.        # because of the bug
SCFMustConverge       .true.
NeglNonOverlapInt     F             # Default: F
#(5) Eigenvalue problem: order-N or diagonalization
SolutionMethod        Diagon        # or Transiesta
ElectronicTemperature 300.0 K       # Default: 300.0 K
#(6) Molecular dynamics and relaxations
#MD.TypeOfRun          CG            # Type of dynamics:
#MD.VariableCell       F
#MD.NumCGsteps         0           # 0 for single-point / 100 for gopt
#MD.MaxCGDispl         0.2 Bohr      # Default: 0.2 Bohr
#MD.MaxForceTol        0.02 eV/Ang   # Default: 0.04 eV/Ang
#MD.MaxStressTol       1.0 GPa       # Default: 1.0 GPa
# Geometry Constraints
#%block GeometryConstraints
#	position from 1 to 44
#%endblock GeometryConstraints
BandLinesScale   pi/a
%block BandLines
 1   0.00000000  0.00000000  0.00000000
50   0.00000000  0.07809418  0.00000000
50   0.04509075  0.07809242  0.00000000
20   0.00000000  0.00000000  0.00000000
%endblock BandLines
************************** End of input data file *****************************

reinit: -----------------------------------------------------------------------
reinit: System Name: GRP_doping
reinit: -----------------------------------------------------------------------
reinit: System Label: GRP_doping                                                  
reinit: -----------------------------------------------------------------------

initatom: Reading input for the pseudopotentials and atomic orbitals ----------
 Species number:            1  Label: N Atomic number:           7
 Species number:            2  Label: C Atomic number:           6
Ground state valence configuration:   2s02  2p03
Reading pseudopotential information in formatted form from N.psf

Valence configuration for pseudopotential generation:
2s( 2.00) rc: 1.48
2p( 3.00) rc: 1.48
3d( 0.00) rc: 1.48
4f( 0.00) rc: 1.48
Ground state valence configuration:   2s02  2p02
Reading pseudopotential information in formatted form from C.psf

Valence configuration for pseudopotential generation:
2s( 2.00) rc: 1.54
2p( 2.00) rc: 1.54
3d( 0.00) rc: 1.54
4f( 0.00) rc: 1.54
For N, standard SIESTA heuristics set lmxkb to 3
 (one more than the basis l, including polarization orbitals).
Use PS.lmax or PS.KBprojectors blocks to override.
For C, standard SIESTA heuristics set lmxkb to 3
 (one more than the basis l, including polarization orbitals).
Use PS.lmax or PS.KBprojectors blocks to override.

<basis_specs>
===============================================================================
N                    Z=   7    Mass=  14.010        Charge= 0.17977+309
Lmxo=1 Lmxkb= 3    BasisType=split      Semic=F
L=0  Nsemic=0  Cnfigmx=2
          n=1  nzeta=2  polorb=0
            splnorm:   0.15000    
               vcte:    0.0000    
               rinn:    0.0000    
                rcs:    0.0000      0.0000    
            lambdas:    1.0000      1.0000    
L=1  Nsemic=0  Cnfigmx=2
          n=1  nzeta=2  polorb=1
            splnorm:   0.15000    
               vcte:    0.0000    
               rinn:    0.0000    
                rcs:    0.0000      0.0000    
            lambdas:    1.0000      1.0000    
-------------------------------------------------------------------------------
L=0  Nkbl=1  erefs: 0.17977+309
L=1  Nkbl=1  erefs: 0.17977+309
L=2  Nkbl=1  erefs: 0.17977+309
L=3  Nkbl=1  erefs: 0.17977+309
===============================================================================
</basis_specs>

atom: Called for N                     (Z =   7)

read_vps: Pseudopotential generation method:
read_vps: ATM3      Troullier-Martins                       
Total valence charge:    5.00000

read_vps: Pseudopotential includes a core correction:
read_vps: Pseudo-core for xc-correction

xc_check: Exchange-correlation functional:
xc_check: GGA Perdew, Burke & Ernzerhof 1996
V l=0 = -2*Zval/r beyond r=  1.4606
V l=1 = -2*Zval/r beyond r=  1.4606
V l=2 = -2*Zval/r beyond r=  1.4606
V l=3 = -2*Zval/r beyond r=  1.4606
All V_l potentials equal beyond r=  1.4606
This should be close to max(r_c) in ps generation
All pots = -2*Zval/r beyond r=  1.4606

VLOCAL1: 99.0% of the norm of Vloc inside     20.347 Ry
VLOCAL1: 99.9% of the norm of Vloc inside     46.372 Ry
atom: Maximum radius for 4*pi*r*r*local-pseudopot. charge    1.76189
atom: Maximum radius for r*vlocal+2*Zval:    1.53550
GHOST: No ghost state for L =  0
GHOST: No ghost state for L =  1
GHOST: No ghost state for L =  2
GHOST: No ghost state for L =  3

KBgen: Kleinman-Bylander projectors: 
   l= 0   rc=  1.634559   el= -1.363963   Ekb=  5.296955   kbcos=  0.335621
   l= 1   rc=  1.614250   el= -0.521451   Ekb= -5.259161   kbcos= -0.433408
   l= 2   rc=  1.718383   el=  0.001991   Ekb= -1.271464   kbcos= -0.007566
   l= 3   rc=  1.761893   el=  0.003093   Ekb= -0.494769   kbcos= -0.001015

KBgen: Total number of  Kleinman-Bylander projectors:   16
atom: -------------------------------------------------------------------------

atom: SANKEY-TYPE ORBITALS:
atom: Selected multiple-zeta basis: split     

SPLIT: Orbitals with angular momentum L= 0

SPLIT: Basis orbitals for state 2s

SPLIT: PAO cut-off radius determined from an
SPLIT: energy shift=  0.007350 Ry

   izeta = 1
                 lambda =    1.000000
                     rc =    4.071465
                 energy =   -1.356470
                kinetic =    1.176977
    potential(screened) =   -2.533447
       potential(ionic) =   -8.057990

   izeta = 2
                 rmatch =    2.905100
              splitnorm =    0.150000
                 energy =   -1.158343
                kinetic =    1.813009
    potential(screened) =   -2.971352
       potential(ionic) =   -8.901931

SPLIT: Orbitals with angular momentum L= 1

SPLIT: Basis orbitals for state 2p

SPLIT: PAO cut-off radius determined from an
SPLIT: energy shift=  0.007350 Ry

   izeta = 1
                 lambda =    1.000000
                     rc =    4.972977
                 energy =   -0.513884
                kinetic =    3.441732
    potential(screened) =   -3.955616
       potential(ionic) =   -9.287901

   izeta = 2
                 rmatch =    3.054066
              splitnorm =    0.150000
                 energy =   -0.318226
                kinetic =    5.125348
    potential(screened) =   -5.443573
       potential(ionic) =  -11.380999

POLgen: Perturbative polarization orbital with L=  2

POLgen: Polarization orbital for state 2p

   izeta = 1
                     rc =    4.972977
                 energy =    1.607437
                kinetic =    3.268125
    potential(screened) =   -1.660688
       potential(ionic) =   -5.973652
atom: Total number of Sankey-type orbitals: 13

atm_pop: Valence configuration (for local Pseudopot. screening):
 2s( 2.00)                                                            
 2p( 3.00)                                                            
Vna: chval, zval:    5.00000   5.00000

Vna:  Cut-off radius for the neutral-atom potential:   4.972977
comcore: Pseudo-core radius Rcore=  1.554824

atom: _________________________________________________________________________

<basis_specs>
===============================================================================
C                    Z=   6    Mass=  12.010        Charge= 0.17977+309
Lmxo=1 Lmxkb= 3    BasisType=split      Semic=F
L=0  Nsemic=0  Cnfigmx=2
          n=1  nzeta=2  polorb=0
            splnorm:   0.15000    
               vcte:    0.0000    
               rinn:    0.0000    
                rcs:    0.0000      0.0000    
            lambdas:    1.0000      1.0000    
L=1  Nsemic=0  Cnfigmx=2
          n=1  nzeta=2  polorb=1
            splnorm:   0.15000    
               vcte:    0.0000    
               rinn:    0.0000    
                rcs:    0.0000      0.0000    
            lambdas:    1.0000      1.0000    
-------------------------------------------------------------------------------
L=0  Nkbl=1  erefs: 0.17977+309
L=1  Nkbl=1  erefs: 0.17977+309
L=2  Nkbl=1  erefs: 0.17977+309
L=3  Nkbl=1  erefs: 0.17977+309
===============================================================================
</basis_specs>

atom: Called for C                     (Z =   6)

read_vps: Pseudopotential generation method:
read_vps: ATM3      Troullier-Martins                       
Total valence charge:    4.00000

read_vps: Pseudopotential includes a core correction:
read_vps: Pseudo-core for xc-correction

xc_check: Exchange-correlation functional:
xc_check: GGA Perdew, Burke & Ernzerhof 1996
V l=0 = -2*Zval/r beyond r=  1.5227
V l=1 = -2*Zval/r beyond r=  1.5227
V l=2 = -2*Zval/r beyond r=  1.5227
V l=3 = -2*Zval/r beyond r=  1.5038
All V_l potentials equal beyond r=  1.5227
This should be close to max(r_c) in ps generation
All pots = -2*Zval/r beyond r=  1.5227

VLOCAL1: 99.0% of the norm of Vloc inside     18.722 Ry
VLOCAL1: 99.9% of the norm of Vloc inside     42.668 Ry
atom: Maximum radius for 4*pi*r*r*local-pseudopot. charge    1.83678
atom: Maximum radius for r*vlocal+2*Zval:    1.58088
GHOST: No ghost state for L =  0
GHOST: No ghost state for L =  1
GHOST: No ghost state for L =  2
GHOST: No ghost state for L =  3

KBgen: Kleinman-Bylander projectors: 
   l= 0   rc=  1.704034   el= -1.009801   Ekb=  5.335044   kbcos=  0.316824
   l= 1   rc=  1.704034   el= -0.388707   Ekb= -3.785862   kbcos= -0.366464
   l= 2   rc=  1.791422   el=  0.001971   Ekb= -0.970471   kbcos= -0.009212
   l= 3   rc=  1.859892   el=  0.003065   Ekb= -0.399525   kbcos= -0.001223

KBgen: Total number of  Kleinman-Bylander projectors:   16
atom: -------------------------------------------------------------------------

atom: SANKEY-TYPE ORBITALS:
atom: Selected multiple-zeta basis: split     

SPLIT: Orbitals with angular momentum L= 0

SPLIT: Basis orbitals for state 2s

SPLIT: PAO cut-off radius determined from an
SPLIT: energy shift=  0.007350 Ry

   izeta = 1
                 lambda =    1.000000
                     rc =    4.632753
                 energy =   -1.002270
                kinetic =    0.855760
    potential(screened) =   -1.858031
       potential(ionic) =   -5.417575

   izeta = 2
                 rmatch =    3.431921
              splitnorm =    0.150000
                 energy =   -0.867111
                kinetic =    1.300804
    potential(screened) =   -2.167915
       potential(ionic) =   -5.962684

SPLIT: Orbitals with angular momentum L= 1

SPLIT: Basis orbitals for state 2p

SPLIT: PAO cut-off radius determined from an
SPLIT: energy shift=  0.007350 Ry

   izeta = 1
                 lambda =    1.000000
                     rc =    5.658549
                 energy =   -0.381140
                kinetic =    2.399701
    potential(screened) =   -2.780841
       potential(ionic) =   -6.206085

   izeta = 2
                 rmatch =    3.653288
              splitnorm =    0.150000
                 energy =   -0.249149
                kinetic =    3.542762
    potential(screened) =   -3.791911
       potential(ionic) =   -7.581078

POLgen: Perturbative polarization orbital with L=  2

POLgen: Polarization orbital for state 2p

   izeta = 1
                     rc =    5.658549
                 energy =    1.109913
                kinetic =    2.304789
    potential(screened) =   -1.194876
       potential(ionic) =   -4.013592
atom: Total number of Sankey-type orbitals: 13

atm_pop: Valence configuration (for local Pseudopot. screening):
 2s( 2.00)                                                            
 2p( 2.00)                                                            
Vna: chval, zval:    4.00000   4.00000

Vna:  Cut-off radius for the neutral-atom potential:   5.658549
comcore: Pseudo-core radius Rcore=  1.791422

atom: _________________________________________________________________________

prinput: Basis input ----------------------------------------------------------

PAO.BasisType split     

%block ChemicalSpeciesLabel
    1    7 N                       # Species index, atomic number, species label
    2    6 C                       # Species index, atomic number, species label
%endblock ChemicalSpeciesLabel

%block PAO.Basis                 # Define Basis set
N                     2                    # Species label, number of l-shells
 n=2   0   2                         # n, l, Nzeta 
   4.071      2.905   
   1.000      1.000   
 n=2   1   2 P   1                   # n, l, Nzeta, Polarization, NzetaPol
   4.973      3.054   
   1.000      1.000   
C                     2                    # Species label, number of l-shells
 n=2   0   2                         # n, l, Nzeta 
   4.633      3.432   
   1.000      1.000   
 n=2   1   2 P   1                   # n, l, Nzeta, Polarization, NzetaPol
   5.659      3.653   
   1.000      1.000   
%endblock PAO.Basis

prinput: ----------------------------------------------------------------------

coor:   Atomic-coordinates input format  =     Fractional

siesta: Atomic coordinates (Bohr) and species
siesta:      2.30256  38.89134   0.00000  1        1
siesta:     -4.68258  37.54693   0.00000  1        2
siesta:      2.30256   6.62836   0.00000  1        3
siesta:      4.63094  10.66124   0.00000  1        4
siesta:      6.95932  17.38257   0.00000  1        5
siesta:      9.28770  21.41544   0.00000  1        6
siesta:     -4.68258  13.34970   0.00000  1        7
siesta:     -0.02582  21.41544   0.00000  1        8
siesta:      2.30256  25.44831   0.00000  1        9
siesta:     -7.01096  17.38257   0.00000  1       10
siesta:     -9.33934  18.72698   0.00000  1       11
siesta:     -9.33934  29.48119   0.00000  1       12
siesta:      4.63094  29.48119   0.00000  1       13
siesta:     -4.68258  26.79272   0.00000  1       14
siesta:     -2.35420  30.82560   0.00000  1       15
siesta:     -7.01096  33.51406   0.00000  1       16
siesta:     -0.02582  34.85847   0.00000  1       17
siesta:     -0.02582   2.59549   0.00000  2       18
siesta:     -0.02582   5.28395   0.00000  2       19
siesta:     -2.35420  38.89134   0.00000  2       20
siesta:     -2.35420  41.57980   0.00000  2       21
siesta:      2.30256  41.57980   0.00000  2       22
siesta:      4.63094  34.85847   0.00000  2       23
siesta:      4.63094  37.54693   0.00000  2       24
siesta:      6.95932  30.82560   0.00000  2       25
siesta:      6.95932  33.51406   0.00000  2       26
siesta:      9.28770  26.79272   0.00000  2       27
siesta:      9.28770  29.48119   0.00000  2       28
siesta:     -4.68258  34.85847   0.00000  2       29
siesta:      2.30256   9.31683   0.00000  2       30
siesta:      4.63094  13.34970   0.00000  2       31
siesta:      6.95932  14.69411   0.00000  2       32
siesta:      9.28770  18.72698   0.00000  2       33
siesta:     11.61608  22.75985   0.00000  2       34
siesta:     11.61608  25.44831   0.00000  2       35
siesta:     -2.35420   6.62836   0.00000  2       36
siesta:     -2.35420   9.31683   0.00000  2       37
siesta:     -0.02582  10.66124   0.00000  2       38
siesta:     -0.02582  13.34970   0.00000  2       39
siesta:      2.30256  14.69411   0.00000  2       40
siesta:      2.30256  17.38257   0.00000  2       41
siesta:      4.63094  18.72698   0.00000  2       42
siesta:      4.63094  21.41544   0.00000  2       43
siesta:      6.95932  22.75985   0.00000  2       44
siesta:      6.95932  25.44831   0.00000  2       45
siesta:     -4.68258  10.66124   0.00000  2       46
siesta:     -2.35420  14.69411   0.00000  2       47
siesta:     -2.35420  17.38257   0.00000  2       48
siesta:     -0.02582  18.72698   0.00000  2       49
siesta:      2.30256  22.75985   0.00000  2       50
siesta:     -7.01096  14.69411   0.00000  2       51
siesta:     -4.68258  18.72698   0.00000  2       52
siesta:     -4.68258  21.41544   0.00000  2       53
siesta:     -2.35420  22.75985   0.00000  2       54
siesta:     -2.35420  25.44831   0.00000  2       55
siesta:     -9.33934  21.41544   0.00000  2       56
siesta:     -7.01096  22.75985   0.00000  2       57
siesta:     -7.01096  25.44831   0.00000  2       58
siesta:    -11.66772  22.75985   0.00000  2       59
siesta:    -11.66772  25.44831   0.00000  2       60
siesta:     -9.33934  26.79272   0.00000  2       61
siesta:      4.63094  26.79272   0.00000  2       62
siesta:     -0.02582  26.79272   0.00000  2       63
siesta:     -0.02582  29.48119   0.00000  2       64
siesta:     -4.68258  29.48119   0.00000  2       65
siesta:      2.30256  30.82560   0.00000  2       66
siesta:      2.30256  33.51406   0.00000  2       67
siesta:     -2.35420  33.51406   0.00000  2       68
siesta:     -7.01096  30.82560   0.00000  2       69
siesta:     -0.02582  37.54693   0.00000  2       70
siesta:     -0.02582  42.92421   0.00000  2       71
siesta:     -0.02582  45.61267   0.00000  2       72

siesta: System type = slab      

initatomlists: Number of atoms, orbitals, and projectors:     72   936  1152

siesta: ******************** Simulation parameters ****************************
siesta:
siesta: The following are some of the parameters of the simulation.
siesta: A complete list of the parameters used, including default values,
siesta: can be found in file out.fdf
siesta:
redata: Non-Collinear-spin run           =     F
redata: SpinPolarized (Up/Down) run      =     F
redata: Number of spin components        =     1
redata: Long output                      =     F
redata: Number of Atomic Species         =        2
redata: Charge density info will appear in .RHO file
redata: Write Mulliken Pop.              =     NO
redata: Mesh Cutoff                      =   200.0000  Ry
redata: Net charge of the system         =     0.0000 |e|
redata: Max. number of SCF Iter          =      500
redata: SCF convergence failure will abort job
redata: Performing Pulay mixing using    =    10 iterations
redata: Mix DM in first SCF step ?       =     F
redata: Write Pulay info on disk?        =     F
redata: Discard 1st Pulay DM after  kick =     F
redata: New DM Mixing Weight             =     0.0500
redata: New DM Occupancy tolerance       = 0.000000000001
redata: No kicks to SCF
redata: DM Mixing Weight for Kicks       =     0.5000
redata: DM Tolerance for SCF             =     0.000100
redata: Require Energy convergence for SCF =     F
redata: DM Energy tolerance for SCF      =     0.000100 eV
redata: Require Harris convergence for SCF =     F
redata: DM Harris energy tolerance for SCF =     0.000100 eV
redata: Using Saved Data (generic)   =     F
redata: Use continuation files for DM    =     T
redata: Neglect nonoverlap interactions  =     F
redata: Method of Calculation            =     Diagonalization
redata: Divide and Conquer               =     T
redata: Electronic Temperature           =     0.0019  Ry
redata: Fix the spin of the system       =     F
redata: Dynamics option                  =     Verlet MD run
redata: Initial MD time step             =        1
redata:   Final MD time step             =        1
redata: Length of MD time step           =     1.0000  fs
redata: Initial Temperature of MD run    =     0.0000  K
redata: Perform a MD quench              =     F
redata: ***********************************************************************
Total number of electrons:   305.000000
Total ionic charge:   305.000000

* ProcessorY, Blocksize:    2  24

k-point displ. along   1 input, could be:     0.50    0.00
k-point displ. along   2 input, could be:     0.50    0.00
 Kpoints in:          231 . Kpoints trimmed:          231

siesta: k-grid: Number of k-points =   231
siesta: k-grid: Cutoff (effective) =     5.000 Ang
siesta: k-grid: Supercell and displacements
siesta: k-grid:   21   0   0      0.500
siesta: k-grid:    0  21   0      0.500
siesta: k-grid:    0   0   1      0.000
Naive supercell factors:     2    2    2

superc: Internal auxiliary supercell:     2 x     2 x     2  =       8
superc: Number of atoms, orbitals, and projectors:    576   7488   9216

* Maximum dynamic memory allocated =     4 MB

siesta:                 ==============================
                            Begin MD step =      1
                        ==============================

superc: Internal auxiliary supercell:     2 x     2 x     2  =       8
superc: Number of atoms, orbitals, and projectors:    576   7488   9216

outcell: Unit cell vectors (Ang):
       12.804619    7.392750    0.000000
        0.000000   14.785500    0.000000
        0.000000    0.000000   10.000000

outcell: Cell vector modules (Ang)   :   14.785500   14.785500   10.000000
outcell: Cell angles (23,13,12) (deg):     90.0000     90.0000     60.0000
outcell: Cell volume (Ang**3)        :   1893.2269
New_DM. Step:     1
Initializing Density Matrix...

InitMesh: MESH =   120 x   120 x    90 =     1296000
InitMesh: Mesh cutoff (required, used) =   200.000   223.865 Ry

* Maximum dynamic memory allocated =   184 MB

stepf: Fermi-Dirac step function

siesta: Program's energy decomposition (eV):
siesta: Ebs     =     -6217.553219
siesta: Eions   =     21135.707422
siesta: Ena     =      4893.610504
siesta: Ekin    =      7804.862351
siesta: Enl     =       134.789337
siesta: DEna    =        -0.000015
siesta: DUscf   =         0.000000
siesta: DUext   =         0.000000
siesta: Exc     =     -4596.990761
siesta: eta*DQ  =         0.000000
siesta: Emadel  =         0.000000
siesta: Emeta   =         0.000000
siesta: Emolmec =         0.000000
siesta: Ekinion =         0.000000
siesta: Eharris =    -12535.927117
siesta: Etot    =    -12899.436006
siesta: FreeEng =    -12899.436006

siesta: iscf   Eharris(eV)      E_KS(eV)   FreeEng(eV)   dDmax  Ef(eV)
siesta:    1   -12535.9271   -12899.4360   -12899.4360  5.9889 -7.0568
timer: Routine,Calls,Time,% = IterSCF        1    4194.530  99.71
elaps: Routine,Calls,Wall,% = IterSCF        1     525.002  99.71
siesta:    2   -15823.8668   -11982.3127   -11982.3583  9.1641 -2.5842
siesta:    3   -12492.3537   -12622.7654   -12622.8135  1.4245 -3.6170
siesta:    4   -12445.5626   -12550.7946   -12550.8323  1.3313 -3.3231
siesta:    5   -12396.0439   -12491.1567   -12491.1923  0.8283 -3.5449
siesta:    6   -12391.8477   -12472.3436   -12472.3925  0.7390 -3.4888
siesta:    7   -12388.7524   -12467.0222   -12467.0841  0.6979 -3.5056
siesta:    8   -12383.2011   -12444.3384   -12444.3997  0.5579 -3.5554
siesta:    9   -12382.4481   -12427.1469   -12427.1728  0.4490 -3.7107
siesta:   10   -12382.2880   -12416.0749   -12416.1619  0.4269 -3.7150
siesta:   11   -12382.5907   -12395.4871   -12395.5561  0.2633 -3.8051
siesta:   12   -12381.9766   -12381.6830   -12381.7385  0.3849 -3.6432
siesta:   13   -12381.8582   -12372.8343   -12372.8903  0.2271 -3.6877
siesta:   14   -12381.6456   -12370.9221   -12370.9652  0.3717 -3.7192
siesta:   15   -12381.2917   -12371.2815   -12371.3540  0.1923 -3.7583
siesta:   16   -12381.0489   -12372.7673   -12372.8514  0.1469 -3.7139
siesta:   17   -12380.9945   -12372.5413   -12372.6219  0.1434 -3.7357
siesta:   18   -12380.8480   -12374.8072   -12374.9018  0.1246 -3.7164
siesta:   19   -12380.8136   -12375.6349   -12375.7273  0.0885 -3.7072
siesta:   20   -12380.8080   -12377.1115   -12377.1950  0.0643 -3.7016
siesta:   21   -12380.7923   -12378.2183   -12378.2954  0.0692 -3.7075
siesta:   22   -12380.7722   -12379.2897   -12379.3661  0.0437 -3.7195
siesta:   23   -12380.7671   -12379.6377   -12379.7196  0.0440 -3.7276
siesta:   24   -12380.7637   -12379.8734   -12379.9587  0.0418 -3.7270
siesta:   25   -12380.7631   -12380.2458   -12380.3334  0.0263 -3.7251
siesta:   26   -12380.7628   -12380.8342   -12380.9220  0.0219 -3.7188
siesta:   27   -12380.7613   -12380.9575   -12381.0428  0.0136 -3.7195
siesta:   28   -12380.7621   -12381.1573   -12381.2440  0.0110 -3.7171
siesta:   29   -12380.7623   -12381.1288   -12381.2139  0.0087 -3.7178
siesta:   30   -12380.7606   -12380.9369   -12381.0217  0.0024 -3.7204
siesta:   31   -12380.7614   -12380.8729   -12380.9594  0.0032 -3.7199
siesta:   32   -12380.7612   -12380.8710   -12380.9565  0.0010 -3.7196
siesta:   33   -12380.7612   -12380.8198   -12380.9055  0.0006 -3.7195
siesta:   34   -12380.7612   -12380.8074   -12380.8930  0.0005 -3.7195
siesta:   35   -12380.7612   -12380.7863   -12380.8719  0.0003 -3.7194
siesta:   36   -12380.7612   -12380.7821   -12380.8677  0.0002 -3.7194
siesta:   37   -12380.7612   -12380.7737   -12380.8593  0.0002 -3.7194
siesta:   38   -12380.7612   -12380.7693   -12380.8549  0.0002 -3.7194
siesta:   39   -12380.7612   -12380.7640   -12380.8496  0.0001 -3.7194
siesta:   40   -12380.7612   -12380.7613   -12380.8469  0.0001 -3.7194
siesta:   41   -12380.7612   -12380.7587   -12380.8443  0.0001 -3.7194

siesta: E_KS(eV) =           -12380.7566

siesta: E_KS - E_eggbox =    -12380.7566

siesta: Atomic forces (eV/Ang):
----------------------------------------
   Tot   -0.517294   -0.337204    0.000000
----------------------------------------
   Max  678.966995
   Res  172.826426    sqrt( Sum f_i^2 / 3N )
----------------------------------------
   Max  678.966995    constrained

Stress-tensor-Voigt (kbar):     -637.73    -3043.19       -0.05        2.89        0.00        0.00
(Free)E + p*V (eV/cell)   -10930.9733
Target enthalpy (eV/cell)   -12380.8422

siesta: Stress tensor (static) (eV/Ang**3):
        -0.398036    0.001805    0.000000
         0.001805   -1.899390    0.000000
         0.000000    0.000000   -0.000031

siesta: Pressure (static):       1226.99038670  kBar

siesta: Stress tensor (total) (eV/Ang**3):
        -0.398036    0.001805    0.000000
         0.001805   -1.899390    0.000000
         0.000000    0.000000   -0.000031

siesta: Pressure (total):       1226.99038670  kBar

siesta: Temp_ion =       0.000 K

* Maximum dynamic memory allocated =   201 MB
Computing bands...

siesta: Program's energy decomposition (eV):
siesta: Ebs     =     -4984.391634
siesta: Eions   =     21135.707422
siesta: Ena     =      4893.610504
siesta: Ekin    =     10857.177090
siesta: Enl     =     -1560.329466
siesta: DEna    =      -772.636168
siesta: DUscf   =       103.038520
siesta: DUext   =         0.000000
siesta: Exc     =     -4765.909650
siesta: eta*DQ  =         0.000000
siesta: Emadel  =         0.000000
siesta: Emeta   =         0.000000
siesta: Emolmec =         0.000000
siesta: Ekinion =         0.000000
siesta: Eharris =    -12380.761233
siesta: Etot    =    -12380.756593
siesta: FreeEng =    -12380.842180

siesta: Final energy (eV):
siesta:  Band Struct. =   -4984.391634
siesta:       Kinetic =   10857.177090
siesta:       Hartree =   34972.218676
siesta:    Ext. field =       0.000000
siesta:   Exch.-corr. =   -4765.909650
siesta:  Ion-electron =  -80367.590420
siesta:       Ion-ion =   26923.347712
siesta:       Ekinion =       0.000000
siesta:         Total =  -12380.756593

siesta: Atomic forces (eV/Ang):
siesta:      1   -7.054309  128.356764    0.000000
siesta:      2  -41.253111 -657.547473    0.000000
siesta:      3   19.180901  653.813005    0.000000
siesta:      4   31.271757  653.911719    0.000000
siesta:      5   -0.361854    1.130264    0.000000
siesta:      6   -0.795793   -1.550769    0.000000
siesta:      7  -27.234187   -4.170353    0.000000
siesta:      8    0.096149   -0.255148    0.000000
siesta:      9    0.382209    0.385528    0.000000
siesta:     10    1.135263   -0.765538    0.000000
siesta:     11    0.081177    0.851895    0.000000
siesta:     12    1.532581   -0.729311    0.000000
siesta:     13   -2.355633   -4.687739    0.000000
siesta:     14    0.752294   -0.104734    0.000000
siesta:     15  -26.636110    4.898597    0.000000
siesta:     16    2.279579   -1.312417    0.000000
siesta:     17   -7.991405  124.371127    0.000000
siesta:     18  -11.796205  551.398421    0.000000
siesta:     19   -4.981727 -124.005216    0.000000
siesta:     20    1.267584  129.192357    0.000000
siesta:     21  -32.976022 -548.825719    0.000000
siesta:     22   15.623602 -546.979869    0.000000
siesta:     23   26.308445    5.921597    0.000000
siesta:     24   26.419669 -655.609100    0.000000
siesta:     25    2.073323    0.450884    0.000000
siesta:     26   -2.715067    0.325771    0.000000
siesta:     27    1.788444    3.224889    0.000000
siesta:     28   -1.776535    0.077121    0.000000
siesta:     29  -23.919364    6.356279    0.000000
siesta:     30   -3.208942 -121.215595    0.000000
siesta:     31   25.987397   -0.685084    0.000000
siesta:     32   -1.696343   -0.167884    0.000000
siesta:     33    0.776501   -0.751629    0.000000
siesta:     34   -1.026417    4.744811    0.000000
siesta:     35   -0.190061   -7.226765    0.000000
siesta:     36   -8.933179  545.448648    0.000000
siesta:     37    3.799248 -125.211617    0.000000
siesta:     38    9.804594  549.817407    0.000000
siesta:     39    1.664631 -125.789430    0.000000
siesta:     40   22.300056  563.472256    0.000000
siesta:     41   24.439883   -7.642651    0.000000
siesta:     42   -0.950450    1.772780    0.000000
siesta:     43    0.078634    0.042211    0.000000
siesta:     44    0.410620    0.686670    0.000000
siesta:     45   -0.117731   -1.082031    0.000000
siesta:     46  -19.480290  651.258982    0.000000
siesta:     47   -6.284475  568.942374    0.000000
siesta:     48  -24.145641   -8.151667    0.000000
siesta:     49   -0.526872  563.724434    0.000000
siesta:     50    0.878855    0.227555    0.000000
siesta:     51    0.339664    1.890872    0.000000
siesta:     52    0.300477    2.639300    0.000000
siesta:     53    0.299194   -0.785473    0.000000
siesta:     54   -1.101656   -0.234597    0.000000
siesta:     55   -0.266721    0.433379    0.000000
siesta:     56   -0.251464   -4.472587    0.000000
siesta:     57    0.712801    1.926382    0.000000
siesta:     58    0.684381   -1.274839    0.000000
siesta:     59    0.138905    6.876130    0.000000
siesta:     60    0.228291   -7.246345    0.000000
siesta:     61   -0.444381    4.885522    0.000000
siesta:     62   -0.813257    0.483364    0.000000
siesta:     63    0.086973   -0.415050    0.000000
siesta:     64   10.655342 -575.706851    0.000000
siesta:     65    0.683671   -3.070990    0.000000
siesta:     66   25.525610    6.524995    0.000000
siesta:     67   13.733879 -678.966995    0.000000
siesta:     68  -10.452159 -562.853836    0.000000
siesta:     69   -1.138182    1.073129    0.000000
siesta:     70    1.011689 -546.756905    0.000000
siesta:     71   -3.239954  130.981095    0.000000
siesta:     72    0.863929 -546.603514    0.000000
siesta: ----------------------------------------
siesta:    Tot   -0.517294   -0.337204    0.000000

siesta: Stress tensor (static) (eV/Ang**3):
siesta:    -0.398036    0.001805    0.000000
siesta:     0.001805   -1.899390    0.000000
siesta:     0.000000    0.000000   -0.000031

siesta: Cell volume =       1893.226884 Ang**3

siesta: Pressure (static):
siesta:                Solid            Molecule  Units
siesta:           0.00834075          0.13566103  Ry/Bohr**3
siesta:           0.76581889         12.45593434  eV/Ang**3
siesta:        1226.99038670      19956.82266929  kBar
(Free)E+ p_basis*V_orbitals  =      -12352.534943
(Free)Eharris+ p_basis*V_orbitals  =      -12352.537443

siesta: Electric dipole (a.u.)  =    0.000000    0.000000    0.000000
siesta: Electric dipole (Debye) =    0.000000    0.000000    0.000000

* Maximum dynamic memory allocated : Node    0 =   201 MB
* Maximum dynamic memory allocated : Node    1 =    73 MB
* Maximum dynamic memory allocated : Node    2 =    73 MB
* Maximum dynamic memory allocated : Node    3 =   192 MB
* Maximum dynamic memory allocated : Node    4 =   190 MB
* Maximum dynamic memory allocated : Node    5 =    71 MB
* Maximum dynamic memory allocated : Node    6 =    71 MB
* Maximum dynamic memory allocated : Node    7 =   174 MB

* Maximum memory occured during matrixMtoO                    

timer: CPU execution times:
timer:  Routine       Calls   Time/call    Tot.time        %
timer:  siesta            1  169735.004  169735.004   100.00
timer:  Setup             1       3.875       3.875     0.00
timer:  bands             3     268.977     806.931     0.48
timer:  writewave         1       0.042       0.042     0.00
timer:  KSV_init          1       0.006       0.006     0.00
timer:  IterMD            1  168918.488  168918.488    99.52
timer:  hsparse           1       0.232       0.232     0.00
timer:  overlap           1       7.706       7.706     0.00
timer:  IterSCF          41    4115.874  168750.838    99.42
timer:  kinefsm           2       3.961       7.922     0.00
timer:  nlefsm            2      18.616      37.232     0.02
timer:  DHSCF            42      86.182    3619.658     2.13
timer:  DHSCF1            1       0.764       0.764     0.00
timer:  DHSCF2            1      33.458      33.458     0.02
timer:  REORD           338       0.010       3.390     0.00
timer:  POISON           43       2.241      96.367     0.06
timer:  DHSCF3           42      84.593    3552.923     2.09
timer:  rhoofd           42      17.080     717.377     0.42
timer:  cellXC           42       3.491     146.640     0.09
timer:  vmat             42      40.761    1711.962     1.01
timer:  MolMec            2       0.000       0.000     0.00
timer:  diagon           41    4028.063  165150.578    97.30
timer:  c-eigval       9592       6.659   63875.403    37.63
timer:  c-buildHS      9592       0.113    1079.362     0.64
timer:  cdiag         19063       6.862  130816.189    77.07
timer:  cdiag1        19063       0.429    8183.319     4.82
timer:  cdiag2        19063       1.909   36389.902    21.44
timer:  cdiag3        19063       3.934   74995.403    44.18
timer:  cdiag4        19063       0.204    3880.161     2.29
timer:  c-eigvec       9471       7.233   68503.341    40.36
timer:  c-buildD       9471       3.540   33524.430    19.75
timer:  DHSCF4            1      30.285      30.285     0.02
timer:  dfscf             1      28.463      28.463     0.02
timer:  overfsm           1       0.406       0.406     0.00
timer:  optical           1       5.012       5.012     0.00
  

elaps: ELAPSED times:
elaps:  Routine       Calls   Time/call    Tot.time        %
elaps:  siesta            1   21240.545   21240.545   100.00
elaps:  Setup             1       0.501       0.501     0.00
elaps:  bands             3      33.674     101.023     0.48
elaps:  writewave         1       0.005       0.005     0.00
elaps:  KSV_init          1       0.001       0.001     0.00
elaps:  IterMD            1   21138.358   21138.358    99.52
elaps:  hsparse           1       0.029       0.029     0.00
elaps:  overlap           1       0.967       0.967     0.00
elaps:  IterSCF          41     515.061   21117.512    99.42
elaps:  kinefsm           2       0.500       0.999     0.00
elaps:  nlefsm            2       2.383       4.767     0.02
elaps:  DHSCF            42      10.877     456.815     2.15
elaps:  DHSCF1            1       0.096       0.096     0.00
elaps:  DHSCF2            1       4.182       4.182     0.02
elaps:  REORD           338       0.001       0.466     0.00
elaps:  POISON           43       0.280      12.047     0.06
elaps:  DHSCF3           42      10.583     444.483     2.09
elaps:  rhoofd           42       4.680     196.556     0.93
elaps:  cellXC           42       0.436      18.311     0.09
elaps:  vmat             42       5.099     214.153     1.01
elaps:  MolMec            2       0.000       0.000     0.00
elaps:  diagon           41     504.067   20666.728    97.30
elaps:  c-eigval       9592       0.833    7992.075    37.63
elaps:  c-buildHS      9592       0.015     147.626     0.70
elaps:  cdiag         19063       0.858   16354.481    77.00
elaps:  cdiag1        19063       0.053    1004.952     4.73
elaps:  cdiag2        19063       0.239    4553.566    21.44
elaps:  cdiag3        19063       0.493    9396.229    44.24
elaps:  cdiag4        19063       0.026     504.081     2.37
elaps:  c-eigvec       9471       0.908    8598.216    40.48
elaps:  c-buildD       9471       0.440    4168.005    19.62
elaps:  DHSCF4            1       7.744       7.744     0.04
elaps:  dfscf             1       7.359       7.359     0.03
elaps:  overfsm           1       0.051       0.051     0.00
elaps:  optical           1       0.001       0.001     0.00
  
>> End of run:   2-MAY-2016   9:59:28
