Siesta Version:                                        siesta-3.2-pl-3
Architecture  : x86_64-unknown-linux-gnu--unknown
Compiler flags: mpiifort -g -O2 -fPIC -xSSE4.1 -fp-model source -shared-intel 
PARALLEL version

* Running on    8 nodes in parallel
>> Start of run:  26-APR-2016  17:03:54

                           ***********************       
                           *  WELCOME TO SIESTA  *       
                           ***********************       

reinit: Reading from standard input
************************** Dump of input data file ****************************
#(1) General system descriptors
SystemName            GRP_doping    # Descriptive name of the system
SystemLabel           GRP_doping    # Short name for naming files
%include STRUCT.fdf
%include KPT.fdf
%include BASIS.fdf
#%include TS.fdf # for transiesta calculation
#(4) DFT, Grid, SCF
XC.functional         GGA           # LDA or GGA (default = LDA)
XC.authors            PBE           # CA (Ceperley-Aldr) = PZ
                                    #    (Perdew-Zunger) - LDA - Default
                                    # PW92 (Perdew-Wang-92) - LDA
                                    # PBE (Perdew-Burke-Ernzerhof) - GGA
MeshCutoff            200.000000    Ry      # Default: 50.0 Ry ~ 0.444 Bohr
                                    #         100.0 Ry ~ 0.314 Bohr
MaxSCFIterations      500           # Default: 50
DM.MixingWeight       0.05          # Default: 0.25
DM.NumberPulay        10            # Default: 0
DM.PulayOnFile        F             # SystemLabel.P1, SystemLabel.P2
DM.Tolerance          1.d-4         # Default: 1.d-4
DM.UseSaveDM          .true.        # because of the bug
SCFMustConverge       .true.
NeglNonOverlapInt     F             # Default: F
#(5) Eigenvalue problem: order-N or diagonalization
SolutionMethod        Diagon        # or Transiesta
ElectronicTemperature 300.0 K       # Default: 300.0 K
#(6) Molecular dynamics and relaxations
#MD.TypeOfRun          CG            # Type of dynamics:
#MD.VariableCell       F
#MD.NumCGsteps         0           # 0 for single-point / 100 for gopt
#MD.MaxCGDispl         0.2 Bohr      # Default: 0.2 Bohr
#MD.MaxForceTol        0.02 eV/Ang   # Default: 0.04 eV/Ang
#MD.MaxStressTol       1.0 GPa       # Default: 1.0 GPa
# Geometry Constraints
#%block GeometryConstraints
#	position from 1 to 44
#%endblock GeometryConstraints
BandLinesScale   pi/a
%block BandLines
 1   0.00000000  0.00000000  0.00000000
50   0.00000000  0.07809418  0.00000000
50   0.04509075  0.07809242  0.00000000
20   0.00000000  0.00000000  0.00000000
%endblock BandLines
************************** End of input data file *****************************

reinit: -----------------------------------------------------------------------
reinit: System Name: GRP_doping
reinit: -----------------------------------------------------------------------
reinit: System Label: GRP_doping                                                  
reinit: -----------------------------------------------------------------------

initatom: Reading input for the pseudopotentials and atomic orbitals ----------
 Species number:            1  Label: N Atomic number:           7
 Species number:            2  Label: C Atomic number:           6
Ground state valence configuration:   2s02  2p03
Reading pseudopotential information in formatted form from N.psf

Valence configuration for pseudopotential generation:
2s( 2.00) rc: 1.48
2p( 3.00) rc: 1.48
3d( 0.00) rc: 1.48
4f( 0.00) rc: 1.48
Ground state valence configuration:   2s02  2p02
Reading pseudopotential information in formatted form from C.psf

Valence configuration for pseudopotential generation:
2s( 2.00) rc: 1.54
2p( 2.00) rc: 1.54
3d( 0.00) rc: 1.54
4f( 0.00) rc: 1.54
For N, standard SIESTA heuristics set lmxkb to 3
 (one more than the basis l, including polarization orbitals).
Use PS.lmax or PS.KBprojectors blocks to override.
For C, standard SIESTA heuristics set lmxkb to 3
 (one more than the basis l, including polarization orbitals).
Use PS.lmax or PS.KBprojectors blocks to override.

<basis_specs>
===============================================================================
N                    Z=   7    Mass=  14.010        Charge= 0.17977+309
Lmxo=1 Lmxkb= 3    BasisType=split      Semic=F
L=0  Nsemic=0  Cnfigmx=2
          n=1  nzeta=2  polorb=0
            splnorm:   0.15000    
               vcte:    0.0000    
               rinn:    0.0000    
                rcs:    0.0000      0.0000    
            lambdas:    1.0000      1.0000    
L=1  Nsemic=0  Cnfigmx=2
          n=1  nzeta=2  polorb=1
            splnorm:   0.15000    
               vcte:    0.0000    
               rinn:    0.0000    
                rcs:    0.0000      0.0000    
            lambdas:    1.0000      1.0000    
-------------------------------------------------------------------------------
L=0  Nkbl=1  erefs: 0.17977+309
L=1  Nkbl=1  erefs: 0.17977+309
L=2  Nkbl=1  erefs: 0.17977+309
L=3  Nkbl=1  erefs: 0.17977+309
===============================================================================
</basis_specs>

atom: Called for N                     (Z =   7)

read_vps: Pseudopotential generation method:
read_vps: ATM3      Troullier-Martins                       
Total valence charge:    5.00000

read_vps: Pseudopotential includes a core correction:
read_vps: Pseudo-core for xc-correction

xc_check: Exchange-correlation functional:
xc_check: GGA Perdew, Burke & Ernzerhof 1996
V l=0 = -2*Zval/r beyond r=  1.4606
V l=1 = -2*Zval/r beyond r=  1.4606
V l=2 = -2*Zval/r beyond r=  1.4606
V l=3 = -2*Zval/r beyond r=  1.4606
All V_l potentials equal beyond r=  1.4606
This should be close to max(r_c) in ps generation
All pots = -2*Zval/r beyond r=  1.4606

VLOCAL1: 99.0% of the norm of Vloc inside     20.347 Ry
VLOCAL1: 99.9% of the norm of Vloc inside     46.372 Ry
atom: Maximum radius for 4*pi*r*r*local-pseudopot. charge    1.76189
atom: Maximum radius for r*vlocal+2*Zval:    1.53550
GHOST: No ghost state for L =  0
GHOST: No ghost state for L =  1
GHOST: No ghost state for L =  2
GHOST: No ghost state for L =  3

KBgen: Kleinman-Bylander projectors: 
   l= 0   rc=  1.634559   el= -1.363963   Ekb=  5.296955   kbcos=  0.335621
   l= 1   rc=  1.614250   el= -0.521451   Ekb= -5.259161   kbcos= -0.433408
   l= 2   rc=  1.718383   el=  0.001991   Ekb= -1.271464   kbcos= -0.007566
   l= 3   rc=  1.761893   el=  0.003093   Ekb= -0.494769   kbcos= -0.001015

KBgen: Total number of  Kleinman-Bylander projectors:   16
atom: -------------------------------------------------------------------------

atom: SANKEY-TYPE ORBITALS:
atom: Selected multiple-zeta basis: split     

SPLIT: Orbitals with angular momentum L= 0

SPLIT: Basis orbitals for state 2s

SPLIT: PAO cut-off radius determined from an
SPLIT: energy shift=  0.007350 Ry

   izeta = 1
                 lambda =    1.000000
                     rc =    4.071465
                 energy =   -1.356470
                kinetic =    1.176977
    potential(screened) =   -2.533447
       potential(ionic) =   -8.057990

   izeta = 2
                 rmatch =    2.905100
              splitnorm =    0.150000
                 energy =   -1.158343
                kinetic =    1.813009
    potential(screened) =   -2.971352
       potential(ionic) =   -8.901931

SPLIT: Orbitals with angular momentum L= 1

SPLIT: Basis orbitals for state 2p

SPLIT: PAO cut-off radius determined from an
SPLIT: energy shift=  0.007350 Ry

   izeta = 1
                 lambda =    1.000000
                     rc =    4.972977
                 energy =   -0.513884
                kinetic =    3.441732
    potential(screened) =   -3.955616
       potential(ionic) =   -9.287901

   izeta = 2
                 rmatch =    3.054066
              splitnorm =    0.150000
                 energy =   -0.318226
                kinetic =    5.125348
    potential(screened) =   -5.443573
       potential(ionic) =  -11.380999

POLgen: Perturbative polarization orbital with L=  2

POLgen: Polarization orbital for state 2p

   izeta = 1
                     rc =    4.972977
                 energy =    1.607437
                kinetic =    3.268125
    potential(screened) =   -1.660688
       potential(ionic) =   -5.973652
atom: Total number of Sankey-type orbitals: 13

atm_pop: Valence configuration (for local Pseudopot. screening):
 2s( 2.00)                                                            
 2p( 3.00)                                                            
Vna: chval, zval:    5.00000   5.00000

Vna:  Cut-off radius for the neutral-atom potential:   4.972977
comcore: Pseudo-core radius Rcore=  1.554824

atom: _________________________________________________________________________

<basis_specs>
===============================================================================
C                    Z=   6    Mass=  12.010        Charge= 0.17977+309
Lmxo=1 Lmxkb= 3    BasisType=split      Semic=F
L=0  Nsemic=0  Cnfigmx=2
          n=1  nzeta=2  polorb=0
            splnorm:   0.15000    
               vcte:    0.0000    
               rinn:    0.0000    
                rcs:    0.0000      0.0000    
            lambdas:    1.0000      1.0000    
L=1  Nsemic=0  Cnfigmx=2
          n=1  nzeta=2  polorb=1
            splnorm:   0.15000    
               vcte:    0.0000    
               rinn:    0.0000    
                rcs:    0.0000      0.0000    
            lambdas:    1.0000      1.0000    
-------------------------------------------------------------------------------
L=0  Nkbl=1  erefs: 0.17977+309
L=1  Nkbl=1  erefs: 0.17977+309
L=2  Nkbl=1  erefs: 0.17977+309
L=3  Nkbl=1  erefs: 0.17977+309
===============================================================================
</basis_specs>

atom: Called for C                     (Z =   6)

read_vps: Pseudopotential generation method:
read_vps: ATM3      Troullier-Martins                       
Total valence charge:    4.00000

read_vps: Pseudopotential includes a core correction:
read_vps: Pseudo-core for xc-correction

xc_check: Exchange-correlation functional:
xc_check: GGA Perdew, Burke & Ernzerhof 1996
V l=0 = -2*Zval/r beyond r=  1.5227
V l=1 = -2*Zval/r beyond r=  1.5227
V l=2 = -2*Zval/r beyond r=  1.5227
V l=3 = -2*Zval/r beyond r=  1.5038
All V_l potentials equal beyond r=  1.5227
This should be close to max(r_c) in ps generation
All pots = -2*Zval/r beyond r=  1.5227

VLOCAL1: 99.0% of the norm of Vloc inside     18.722 Ry
VLOCAL1: 99.9% of the norm of Vloc inside     42.668 Ry
atom: Maximum radius for 4*pi*r*r*local-pseudopot. charge    1.83678
atom: Maximum radius for r*vlocal+2*Zval:    1.58088
GHOST: No ghost state for L =  0
GHOST: No ghost state for L =  1
GHOST: No ghost state for L =  2
GHOST: No ghost state for L =  3

KBgen: Kleinman-Bylander projectors: 
   l= 0   rc=  1.704034   el= -1.009801   Ekb=  5.335044   kbcos=  0.316824
   l= 1   rc=  1.704034   el= -0.388707   Ekb= -3.785862   kbcos= -0.366464
   l= 2   rc=  1.791422   el=  0.001971   Ekb= -0.970471   kbcos= -0.009212
   l= 3   rc=  1.859892   el=  0.003065   Ekb= -0.399525   kbcos= -0.001223

KBgen: Total number of  Kleinman-Bylander projectors:   16
atom: -------------------------------------------------------------------------

atom: SANKEY-TYPE ORBITALS:
atom: Selected multiple-zeta basis: split     

SPLIT: Orbitals with angular momentum L= 0

SPLIT: Basis orbitals for state 2s

SPLIT: PAO cut-off radius determined from an
SPLIT: energy shift=  0.007350 Ry

   izeta = 1
                 lambda =    1.000000
                     rc =    4.632753
                 energy =   -1.002270
                kinetic =    0.855760
    potential(screened) =   -1.858031
       potential(ionic) =   -5.417575

   izeta = 2
                 rmatch =    3.431921
              splitnorm =    0.150000
                 energy =   -0.867111
                kinetic =    1.300804
    potential(screened) =   -2.167915
       potential(ionic) =   -5.962684

SPLIT: Orbitals with angular momentum L= 1

SPLIT: Basis orbitals for state 2p

SPLIT: PAO cut-off radius determined from an
SPLIT: energy shift=  0.007350 Ry

   izeta = 1
                 lambda =    1.000000
                     rc =    5.658549
                 energy =   -0.381140
                kinetic =    2.399701
    potential(screened) =   -2.780841
       potential(ionic) =   -6.206085

   izeta = 2
                 rmatch =    3.653288
              splitnorm =    0.150000
                 energy =   -0.249149
                kinetic =    3.542762
    potential(screened) =   -3.791911
       potential(ionic) =   -7.581078

POLgen: Perturbative polarization orbital with L=  2

POLgen: Polarization orbital for state 2p

   izeta = 1
                     rc =    5.658549
                 energy =    1.109913
                kinetic =    2.304789
    potential(screened) =   -1.194876
       potential(ionic) =   -4.013592
atom: Total number of Sankey-type orbitals: 13

atm_pop: Valence configuration (for local Pseudopot. screening):
 2s( 2.00)                                                            
 2p( 2.00)                                                            
Vna: chval, zval:    4.00000   4.00000

Vna:  Cut-off radius for the neutral-atom potential:   5.658549
comcore: Pseudo-core radius Rcore=  1.791422

atom: _________________________________________________________________________

prinput: Basis input ----------------------------------------------------------

PAO.BasisType split     

%block ChemicalSpeciesLabel
    1    7 N                       # Species index, atomic number, species label
    2    6 C                       # Species index, atomic number, species label
%endblock ChemicalSpeciesLabel

%block PAO.Basis                 # Define Basis set
N                     2                    # Species label, number of l-shells
 n=2   0   2                         # n, l, Nzeta 
   4.071      2.905   
   1.000      1.000   
 n=2   1   2 P   1                   # n, l, Nzeta, Polarization, NzetaPol
   4.973      3.054   
   1.000      1.000   
C                     2                    # Species label, number of l-shells
 n=2   0   2                         # n, l, Nzeta 
   4.633      3.432   
   1.000      1.000   
 n=2   1   2 P   1                   # n, l, Nzeta, Polarization, NzetaPol
   5.659      3.653   
   1.000      1.000   
%endblock PAO.Basis

prinput: ----------------------------------------------------------------------

coor:   Atomic-coordinates input format  =     Fractional

siesta: Atomic coordinates (Bohr) and species
siesta:      2.30256  38.89134   0.00000  1        1
siesta:      4.63094  34.85847   0.00000  1        2
siesta:      4.63094  37.54693   0.00000  1        3
siesta:      6.95932  33.51406   0.00000  1        4
siesta:      4.63094  13.34970   0.00000  1        5
siesta:      6.95932  14.69411   0.00000  1        6
siesta:      6.95932  17.38257   0.00000  1        7
siesta:      9.28770  18.72698   0.00000  1        8
siesta:      9.28770  21.41544   0.00000  1        9
siesta:     11.61608  22.75985   0.00000  1       10
siesta:     -0.02582  18.72698   0.00000  1       11
siesta:     -0.02582  21.41544   0.00000  1       12
siesta:     -4.68258  21.41544   0.00000  1       13
siesta:     -2.35420  22.75985   0.00000  1       14
siesta:     -7.01096  22.75985   0.00000  1       15
siesta:     -7.01096  25.44831   0.00000  1       16
siesta:     -4.68258  26.79272   0.00000  1       17
siesta:     -4.68258  29.48119   0.00000  1       18
siesta:     -2.35420  30.82560   0.00000  1       19
siesta:     -2.35420  33.51406   0.00000  1       20
siesta:     -0.02582  34.85847   0.00000  1       21
siesta:     -0.02582  37.54693   0.00000  1       22
siesta:     -0.02582   2.59549   0.00000  2       23
siesta:     -0.02582   5.28395   0.00000  2       24
siesta:     -2.35420  38.89134   0.00000  2       25
siesta:     -2.35420  41.57980   0.00000  2       26
siesta:      2.30256  41.57980   0.00000  2       27
siesta:      6.95932  30.82560   0.00000  2       28
siesta:      9.28770  26.79272   0.00000  2       29
siesta:      9.28770  29.48119   0.00000  2       30
siesta:     -4.68258  34.85847   0.00000  2       31
siesta:     -4.68258  37.54693   0.00000  2       32
siesta:      2.30256   6.62836   0.00000  2       33
siesta:      2.30256   9.31683   0.00000  2       34
siesta:      4.63094  10.66124   0.00000  2       35
siesta:     11.61608  25.44831   0.00000  2       36
siesta:     -2.35420   6.62836   0.00000  2       37
siesta:     -2.35420   9.31683   0.00000  2       38
siesta:     -0.02582  10.66124   0.00000  2       39
siesta:     -0.02582  13.34970   0.00000  2       40
siesta:      2.30256  14.69411   0.00000  2       41
siesta:      2.30256  17.38257   0.00000  2       42
siesta:      4.63094  18.72698   0.00000  2       43
siesta:      4.63094  21.41544   0.00000  2       44
siesta:      6.95932  22.75985   0.00000  2       45
siesta:      6.95932  25.44831   0.00000  2       46
siesta:     -4.68258  10.66124   0.00000  2       47
siesta:     -4.68258  13.34970   0.00000  2       48
siesta:     -2.35420  14.69411   0.00000  2       49
siesta:     -2.35420  17.38257   0.00000  2       50
siesta:      2.30256  22.75985   0.00000  2       51
siesta:      2.30256  25.44831   0.00000  2       52
siesta:     -7.01096  14.69411   0.00000  2       53
siesta:     -7.01096  17.38257   0.00000  2       54
siesta:     -4.68258  18.72698   0.00000  2       55
siesta:     -2.35420  25.44831   0.00000  2       56
siesta:     -9.33934  18.72698   0.00000  2       57
siesta:     -9.33934  21.41544   0.00000  2       58
siesta:    -11.66772  22.75985   0.00000  2       59
siesta:    -11.66772  25.44831   0.00000  2       60
siesta:     -9.33934  26.79272   0.00000  2       61
siesta:     -9.33934  29.48119   0.00000  2       62
siesta:      4.63094  26.79272   0.00000  2       63
siesta:      4.63094  29.48119   0.00000  2       64
siesta:     -0.02582  26.79272   0.00000  2       65
siesta:     -0.02582  29.48119   0.00000  2       66
siesta:      2.30256  30.82560   0.00000  2       67
siesta:      2.30256  33.51406   0.00000  2       68
siesta:     -7.01096  30.82560   0.00000  2       69
siesta:     -7.01096  33.51406   0.00000  2       70
siesta:     -0.02582  42.92421   0.00000  2       71
siesta:     -0.02582  45.61267   0.00000  2       72

siesta: System type = slab      

initatomlists: Number of atoms, orbitals, and projectors:     72   936  1152

siesta: ******************** Simulation parameters ****************************
siesta:
siesta: The following are some of the parameters of the simulation.
siesta: A complete list of the parameters used, including default values,
siesta: can be found in file out.fdf
siesta:
redata: Non-Collinear-spin run           =     F
redata: SpinPolarized (Up/Down) run      =     F
redata: Number of spin components        =     1
redata: Long output                      =     F
redata: Number of Atomic Species         =        2
redata: Charge density info will appear in .RHO file
redata: Write Mulliken Pop.              =     NO
redata: Mesh Cutoff                      =   200.0000  Ry
redata: Net charge of the system         =     0.0000 |e|
redata: Max. number of SCF Iter          =      500
redata: SCF convergence failure will abort job
redata: Performing Pulay mixing using    =    10 iterations
redata: Mix DM in first SCF step ?       =     F
redata: Write Pulay info on disk?        =     F
redata: Discard 1st Pulay DM after  kick =     F
redata: New DM Mixing Weight             =     0.0500
redata: New DM Occupancy tolerance       = 0.000000000001
redata: No kicks to SCF
redata: DM Mixing Weight for Kicks       =     0.5000
redata: DM Tolerance for SCF             =     0.000100
redata: Require Energy convergence for SCF =     F
redata: DM Energy tolerance for SCF      =     0.000100 eV
redata: Require Harris convergence for SCF =     F
redata: DM Harris energy tolerance for SCF =     0.000100 eV
redata: Using Saved Data (generic)   =     F
redata: Use continuation files for DM    =     T
redata: Neglect nonoverlap interactions  =     F
redata: Method of Calculation            =     Diagonalization
redata: Divide and Conquer               =     T
redata: Electronic Temperature           =     0.0019  Ry
redata: Fix the spin of the system       =     F
redata: Dynamics option                  =     Verlet MD run
redata: Initial MD time step             =        1
redata:   Final MD time step             =        1
redata: Length of MD time step           =     1.0000  fs
redata: Initial Temperature of MD run    =     0.0000  K
redata: Perform a MD quench              =     F
redata: ***********************************************************************
Total number of electrons:   310.000000
Total ionic charge:   310.000000

* ProcessorY, Blocksize:    2  24

k-point displ. along   1 input, could be:     0.50    0.00
k-point displ. along   2 input, could be:     0.50    0.00
 Kpoints in:          231 . Kpoints trimmed:          231

siesta: k-grid: Number of k-points =   231
siesta: k-grid: Cutoff (effective) =     5.000 Ang
siesta: k-grid: Supercell and displacements
siesta: k-grid:   21   0   0      0.500
siesta: k-grid:    0  21   0      0.500
siesta: k-grid:    0   0   1      0.000
Naive supercell factors:     2    2    2

superc: Internal auxiliary supercell:     2 x     2 x     2  =       8
superc: Number of atoms, orbitals, and projectors:    576   7488   9216

* Maximum dynamic memory allocated =     4 MB

siesta:                 ==============================
                            Begin MD step =      1
                        ==============================

superc: Internal auxiliary supercell:     2 x     2 x     2  =       8
superc: Number of atoms, orbitals, and projectors:    576   7488   9216

outcell: Unit cell vectors (Ang):
       12.804619    7.392750    0.000000
        0.000000   14.785500    0.000000
        0.000000    0.000000   10.000000

outcell: Cell vector modules (Ang)   :   14.785500   14.785500   10.000000
outcell: Cell angles (23,13,12) (deg):     90.0000     90.0000     60.0000
outcell: Cell volume (Ang**3)        :   1893.2269
New_DM. Step:     1
Initializing Density Matrix...

InitMesh: MESH =   120 x   120 x    90 =     1296000
InitMesh: Mesh cutoff (required, used) =   200.000   223.865 Ry

* Maximum dynamic memory allocated =   179 MB

stepf: Fermi-Dirac step function

siesta: Program's energy decomposition (eV):
siesta: Ebs     =     -6301.581702
siesta: Eions   =     21939.441643
siesta: Ena     =      4950.422351
siesta: Ekin    =      8224.476411
siesta: Enl     =        -3.281692
siesta: DEna    =        -0.000015
siesta: DUscf   =         0.000000
siesta: DUext   =         0.000000
siesta: Exc     =     -4722.300634
siesta: eta*DQ  =         0.000000
siesta: Emadel  =         0.000000
siesta: Emeta   =         0.000000
siesta: Emolmec =         0.000000
siesta: Ekinion =         0.000000
siesta: Eharris =    -13119.595840
siesta: Etot    =    -13490.125221
siesta: FreeEng =    -13490.125221

siesta: iscf   Eharris(eV)      E_KS(eV)   FreeEng(eV)   dDmax  Ef(eV)
siesta:    1   -13119.5958   -13490.1252   -13490.1252  5.4843 -6.7950
timer: Routine,Calls,Time,% = IterSCF        1    4103.406  99.70
elaps: Routine,Calls,Wall,% = IterSCF        1     513.586  99.70
siesta:    2   -17225.1650   -12482.3884   -12482.4413 18.6907 -3.6645
siesta:    3   -13051.7507   -13246.4257   -13246.4315  1.7940 -4.5790
siesta:    4   -13010.6915   -13132.8669   -13132.9215  1.0935 -3.9291
siesta:    5   -12967.2128   -13057.7784   -13057.8432  0.8203 -3.6346
siesta:    6   -12962.3183   -13040.4748   -13040.5072  0.7714 -3.6445
siesta:    7   -12958.1515   -13035.7071   -13035.7519  0.7327 -3.6000
siesta:    8   -12953.5162   -13019.1236   -13019.1863  0.6816 -3.7171
siesta:    9   -12951.9842   -13002.0313   -13002.1166  0.5708 -3.7926
siesta:   10   -12951.6875   -12981.0125   -12981.0540  0.4318 -3.6201
siesta:   11   -12952.0163   -12960.3288   -12960.3768  0.3243 -3.6787
siesta:   12   -12952.0435   -12948.9189   -12948.9723  0.3440 -3.6160
siesta:   13   -12951.3325   -12945.0235   -12945.0931  0.2341 -3.6062
siesta:   14   -12951.0335   -12944.4423   -12944.5096  0.2338 -3.6124
siesta:   15   -12950.8781   -12943.2588   -12943.3284  0.1572 -3.6175
siesta:   16   -12950.7286   -12944.5781   -12944.6490  0.0809 -3.6304
siesta:   17   -12950.6836   -12946.2752   -12946.3558  0.0545 -3.6493
siesta:   18   -12950.6690   -12948.6913   -12948.7650  0.0340 -3.6611
siesta:   19   -12950.6672   -12949.4643   -12949.5438  0.0424 -3.6593
siesta:   20   -12950.6629   -12949.9704   -12950.0464  0.0186 -3.6658
siesta:   21   -12948.8280   -12950.1284   -12950.2057  3.0850 -3.6606
siesta:   22   -12950.6632   -12950.4588   -12950.5349  0.0141 -3.6605
siesta:   23   -12950.6629   -12950.6098   -12950.6862  0.0088 -3.6592
siesta:   24   -12950.6612   -12950.8611   -12950.9376  0.0082 -3.6543
siesta:   25   -12950.6608   -12950.8273   -12950.9046  0.0064 -3.6540
siesta:   26   -12950.6604   -12950.9318   -12951.0087  0.0036 -3.6531
siesta:   27   -12950.6603   -12950.8931   -12950.9700  0.0027 -3.6531
siesta:   28   -12949.7418   -12950.8726   -12950.9494  1.6088 -3.6533
siesta:   29   -12950.6602   -12950.8472   -12950.9241  0.0017 -3.6530
siesta:   30   -12949.7409   -12950.8494   -12950.9263  1.5333 -3.6538
siesta:   31   -12949.7409   -12950.8445   -12950.9215  1.5342 -3.6536
siesta:   32   -12948.8263   -12950.8451   -12950.9220  3.1297 -3.6539
siesta:   33   -12949.7403   -12950.8344   -12950.9112  1.6334 -3.6536
siesta:   34   -12950.6602   -12950.8392   -12950.9161  0.0014 -3.6531
siesta:   35   -12949.7403   -12950.7919   -12950.8688  1.6208 -3.6543
siesta:   36   -12950.6601   -12950.8234   -12950.9003  0.0027 -3.6538
siesta:   37   -12950.6601   -12950.8153   -12950.8923  0.0012 -3.6536
siesta:   38   -12949.7409   -12950.7899   -12950.8668  1.5230 -3.6543
siesta:   39   -12950.6602   -12950.7903   -12950.8672  0.0008 -3.6540
siesta:   40   -12949.7404   -12950.7761   -12950.8530  1.5521 -3.6543
siesta:   41   -12950.6602   -12950.7763   -12950.8531  0.0007 -3.6541
siesta:   42   -12948.8206   -12950.7525   -12950.8294  3.1913 -3.6544
siesta:   43   -12950.6601   -12950.7525   -12950.8293  0.0005 -3.6539
siesta:   44   -12949.7441   -12950.7203   -12950.7972  1.5601 -3.6541
siesta:   45   -12950.6602   -12950.7347   -12950.8116  0.0006 -3.6539
siesta:   46   -12950.6602   -12950.6862   -12950.7631  0.0002 -3.6539
siesta:   47   -12950.6602   -12950.6794   -12950.7563  0.0002 -3.6539
siesta:   48   -12950.6602   -12950.6761   -12950.7530  0.0002 -3.6539
siesta:   49   -12950.6602   -12950.6736   -12950.7505  0.0002 -3.6539
siesta:   50   -12950.6602   -12950.6686   -12950.7455  0.0002 -3.6538
siesta:   51   -12949.7394   -12950.6645   -12950.7414  1.5900 -3.6541
siesta:   52   -12949.7403   -12950.6667   -12950.7435  1.6211 -3.6541
siesta:   53   -12949.7402   -12950.6667   -12950.7435  1.6216 -3.6541
siesta:   54   -12949.7403   -12950.6670   -12950.7438  1.6212 -3.6541
siesta:   55   -12950.6602   -12950.6670   -12950.7438  0.0002 -3.6538
siesta:   56   -12950.6602   -12950.6657   -12950.7426  0.0002 -3.6538
siesta:   57   -12950.6602   -12950.6652   -12950.7421  0.0002 -3.6538
siesta:   58   -12950.6602   -12950.6632   -12950.7401  0.0002 -3.6538
siesta:   59   -12950.6602   -12950.6630   -12950.7399  0.0002 -3.6538
siesta:   60   -12950.6602   -12950.6620   -12950.7389  0.0002 -3.6538
siesta:   61   -12949.7415   -12950.6612   -12950.7381  1.6256 -3.6541
siesta:   62   -12948.8248   -12950.6612   -12950.7381  3.2085 -3.6543
siesta:   63   -12948.8250   -12950.6612   -12950.7380  3.2066 -3.6543
siesta:   64   -12949.7413   -12950.6612   -12950.7380  1.6284 -3.6541
siesta:   65   -12948.8251   -12950.6612   -12950.7381  3.2052 -3.6543
siesta:   66   -12948.8253   -12950.6612   -12950.7380  3.2028 -3.6543
siesta:   67   -12949.7430   -12950.6614   -12950.7382  1.6210 -3.6541
siesta:   68   -12948.8255   -12950.6613   -12950.7381  3.2012 -3.6543
siesta:   69   -12950.6602   -12950.6618   -12950.7386  0.0002 -3.6538
siesta:   70   -12949.7433   -12950.6618   -12950.7387  1.6171 -3.6541
siesta:   71   -12948.8274   -12950.6618   -12950.7386  3.1914 -3.6543
siesta:   72   -12948.8274   -12950.6618   -12950.7385  3.1913 -3.6543
siesta:   73   -12949.7433   -12950.6618   -12950.7385  1.6176 -3.6541
siesta:   74   -12949.7432   -12950.6618   -12950.7386  1.6184 -3.6541
siesta:   75   -12949.7430   -12950.6618   -12950.7386  1.6209 -3.6541
siesta:   76   -12950.6601   -12950.6158   -12950.6927  0.0813 -3.6543
siesta:   77   -12950.6602   -12950.6620   -12950.7390  0.0001 -3.6538
siesta:   78   -12949.7401   -12950.6620   -12950.7389  1.5996 -3.6541
siesta:   79   -12950.6602   -12950.6620   -12950.7388  0.0003 -3.6538
siesta:   80   -12950.6602   -12950.6622   -12950.7391  0.0010 -3.6538
siesta:   81   -12950.6602   -12950.6631   -12950.7400  0.0039 -3.6538
siesta:   82   -12950.6602   -12950.6633   -12950.7402  0.0050 -3.6538
siesta:   83   -12950.6602   -12950.6633   -12950.7402  0.0052 -3.6538
siesta:   84   -12950.6602   -12950.6632   -12950.7401  0.0050 -3.6538
siesta:   85   -12950.6602   -12950.6630   -12950.7399  0.0047 -3.6538
siesta:   86   -12950.6602   -12950.6629   -12950.7398  0.0045 -3.6538
siesta:   87   -12950.6602   -12950.6627   -12950.7396  0.0043 -3.6538
siesta:   88   -12950.6602   -12950.6626   -12950.7395  0.0040 -3.6538
siesta:   89   -12950.6602   -12950.6625   -12950.7394  0.0038 -3.6538
siesta:   90   -12950.6602   -12950.6624   -12950.7393  0.0036 -3.6539
siesta:   91   -12950.6602   -12950.6623   -12950.7392  0.0035 -3.6538
siesta:   92   -12950.6601   -12950.6622   -12950.7390  0.0033 -3.6540
siesta:   93   -12950.6602   -12950.6621   -12950.7390  0.0031 -3.6535
siesta:   94   -12950.6601   -12950.6620   -12950.7388  0.0045 -3.6544
siesta:   95   -12950.6604   -12950.6619   -12950.7388  0.0089 -3.6527
siesta:   96   -12950.6602   -12950.6618   -12950.7385  0.0176 -3.6560
siesta:   97   -12950.6619   -12950.6617   -12950.7388  0.0344 -3.6496
siesta:   98   -12950.6637   -12950.6615   -12950.7377  0.0684 -3.6621
siesta:   99   -12950.6792   -12950.6611   -12950.7380  0.1227 -3.6386
siesta:  100   -12950.7093   -12950.6603   -12950.7317  0.2167 -3.6785
siesta:  101   -12950.7889   -12950.6570   -12950.7254  0.2358 -3.6242
siesta:  102   -12950.7595   -12950.6557   -12950.7123  0.2721 -3.6849
siesta:  103   -12950.8359   -12950.6508   -12950.7129  0.2461 -3.6213
siesta:  104   -12950.7401   -12950.6508   -12950.7050  0.2509 -3.6842
siesta:  105   -12949.7418   -12950.6602   -12950.7254  1.6253 -3.6541
siesta:  106   -12950.6601   -12950.6618   -12950.7386  0.0017 -3.6539
siesta:  107   -12950.6601   -12950.6616   -12950.7385  0.0010 -3.6539
siesta:  108   -12950.6601   -12950.6614   -12950.7384  0.0008 -3.6538
siesta:  109   -12949.7418   -12950.6611   -12950.7381  1.6044 -3.6540
siesta:  110   -12950.6601   -12950.6611   -12950.7379  0.0012 -3.6537
siesta:  111   -12950.6602   -12950.6606   -12950.7376  0.0010 -3.6537
siesta:  112   -12950.6601   -12950.6607   -12950.7376  0.0005 -3.6539
siesta:  113   -12950.6601   -12950.6606   -12950.7376  0.0005 -3.6539
siesta:  114   -12948.8220   -12950.6604   -12950.7374  3.2740 -3.6543
siesta:  115   -12948.8212   -12950.6604   -12950.7372  3.1800 -3.6543
siesta:  116   -12950.6602   -12950.6605   -12950.7372  0.0006 -3.6538
siesta:  117   -12949.7465   -12950.6605   -12950.7374  1.5725 -3.6541
siesta:  118   -12950.6602   -12950.6605   -12950.7373  0.0006 -3.6538
siesta:  119   -12948.8228   -12950.6605   -12950.7374  3.1082 -3.6543
siesta:  120   -12949.7418   -12950.6605   -12950.7373  1.5875 -3.6541
siesta:  121   -12948.8257   -12950.6605   -12950.7374  3.1833 -3.6543
siesta:  122   -12950.6602   -12950.6605   -12950.7373  0.0007 -3.6538
siesta:  123   -12950.6602   -12950.6605   -12950.7374  0.0007 -3.6538
siesta:  124   -12950.6602   -12950.6606   -12950.7375  0.0007 -3.6538
siesta:  125   -12950.6602   -12950.6606   -12950.7375  0.0007 -3.6538
siesta:  126   -12950.6602   -12950.6606   -12950.7375  0.0007 -3.6538
siesta:  127   -12950.6602   -12950.6605   -12950.7374  0.0006 -3.6538
siesta:  128   -12950.6602   -12950.6606   -12950.7375  0.0007 -3.6538
siesta:  129   -12950.6602   -12950.6606   -12950.7375  0.0007 -3.6538
siesta:  130   -12950.6602   -12950.6605   -12950.7374  0.0006 -3.6538
siesta:  131   -12950.6602   -12950.6605   -12950.7374  0.0007 -3.6538
siesta:  132   -12950.6602   -12950.6601   -12950.7370  0.0005 -3.6538
siesta:  133   -12950.6602   -12950.6601   -12950.7370  0.0004 -3.6538
siesta:  134   -12950.6602   -12950.6601   -12950.7369  0.0002 -3.6538
siesta:  135   -12950.6602   -12950.6601   -12950.7369  0.0001 -3.6538
siesta:  136   -12950.6602   -12950.6600   -12950.7369  0.0001 -3.6538
siesta:  137   -12950.6602   -12950.6600   -12950.7369  0.0001 -3.6538
siesta:  138   -12950.6602   -12950.6600   -12950.7369  0.0001 -3.6538
siesta:  139   -12948.8349   -12950.6600   -12950.7369  3.1173 -3.6543
siesta:  140   -12950.6602   -12950.6604   -12950.7372  0.0005 -3.6538
siesta:  141   -12950.6602   -12950.6604   -12950.7373  0.0005 -3.6538
siesta:  142   -12948.8233   -12950.6604   -12950.7373  3.1543 -3.6543
siesta:  143   -12950.6602   -12950.6605   -12950.7372  0.0006 -3.6538
siesta:  144   -12949.7405   -12950.6605   -12950.7374  1.6471 -3.6541
siesta:  145   -12950.6602   -12950.6605   -12950.7374  0.0006 -3.6538
siesta:  146   -12950.6602   -12950.6605   -12950.7374  0.0006 -3.6538
siesta:  147   -12950.6602   -12950.6605   -12950.7374  0.0006 -3.6538
siesta:  148   -12948.8208   -12950.6605   -12950.7374  3.1909 -3.6543
siesta:  149   -12948.8178   -12950.6605   -12950.7373  3.1415 -3.6543
siesta:  150   -12949.7400   -12950.6605   -12950.7373  1.6474 -3.6541
siesta:  151   -12949.7409   -12950.6605   -12950.7373  1.5810 -3.6541
siesta:  152   -12950.6602   -12950.6605   -12950.7374  0.0006 -3.6538
siesta:  153   -12950.6602   -12950.6605   -12950.7374  0.0006 -3.6538
siesta:  154   -12949.7403   -12950.6606   -12950.7375  1.5402 -3.6541
siesta:  155   -12948.8198   -12950.6606   -12950.7374  3.1960 -3.6543
siesta:  156   -12950.6602   -12950.6606   -12950.7373  0.0007 -3.6538
siesta:  157   -12950.6602   -12950.6606   -12950.7375  0.0007 -3.6538
siesta:  158   -12950.6602   -12950.6606   -12950.7375  0.0007 -3.6538
siesta:  159   -12950.6602   -12950.6606   -12950.7375  0.0007 -3.6538
siesta:  160   -12948.8222   -12950.6606   -12950.7374  3.1471 -3.6543
siesta:  161   -12950.6602   -12950.6605   -12950.7373  0.0007 -3.6538
siesta:  162   -12950.6602   -12950.6605   -12950.7374  0.0006 -3.6538
siesta:  163   -12950.6602   -12950.6604   -12950.7373  0.0004 -3.6538
siesta:  164   -12950.6602   -12950.6603   -12950.7372  0.0002 -3.6538
siesta:  165   -12950.6602   -12950.6602   -12950.7371  0.0001 -3.6538
siesta:  166   -12950.6602   -12950.6602   -12950.7371  0.0000 -3.6538

siesta: E_KS(eV) =           -12950.6602

siesta: E_KS - E_eggbox =    -12950.6602

siesta: Atomic forces (eV/Ang):
----------------------------------------
   Tot   -0.361197   -0.156543    0.000000
----------------------------------------
   Max  680.512190
   Res  176.584139    sqrt( Sum f_i^2 / 3N )
----------------------------------------
   Max  680.512190    constrained

Stress-tensor-Voigt (kbar):     -644.17    -3181.16       -0.03       18.50        0.00        0.00
(Free)E + p*V (eV/cell)   -11443.9995
Target enthalpy (eV/cell)   -12950.7371

siesta: Stress tensor (static) (eV/Ang**3):
        -0.402054    0.011545    0.000000
         0.011545   -1.985501    0.000000
         0.000000    0.000000   -0.000016

siesta: Pressure (static):       1275.11704105  kBar

siesta: Stress tensor (total) (eV/Ang**3):
        -0.402054    0.011545    0.000000
         0.011545   -1.985501    0.000000
         0.000000    0.000000   -0.000016

siesta: Pressure (total):       1275.11704105  kBar

siesta: Temp_ion =       0.000 K

* Maximum dynamic memory allocated =   205 MB
Computing bands...

siesta: Program's energy decomposition (eV):
siesta: Ebs     =     -5055.025351
siesta: Eions   =     21939.441643
siesta: Ena     =      4950.422351
siesta: Ekin    =     11315.450567
siesta: Enl     =     -1690.210129
siesta: DEna    =      -801.647882
siesta: DUscf   =       112.419224
siesta: DUext   =         0.000000
siesta: Exc     =     -4897.652674
siesta: eta*DQ  =         0.000000
siesta: Emadel  =         0.000000
siesta: Emeta   =         0.000000
siesta: Emolmec =         0.000000
siesta: Ekinion =         0.000000
siesta: Eharris =    -12950.660166
siesta: Etot    =    -12950.660185
siesta: FreeEng =    -12950.737082

siesta: Final energy (eV):
siesta:  Band Struct. =   -5055.025351
siesta:       Kinetic =   11315.450567
siesta:       Hartree =   36350.787047
siesta:    Ext. field =       0.000000
siesta:   Exch.-corr. =   -4897.652674
siesta:  Ion-electron =  -83499.707277
siesta:       Ion-ion =   27780.462152
siesta:       Ekinion =       0.000000
siesta:         Total =  -12950.660185

siesta: Atomic forces (eV/Ang):
siesta:      1   -1.053825  122.221979    0.000000
siesta:      2   23.946625    3.123356    0.000000
siesta:      3   35.366646 -657.341664    0.000000
siesta:      4   -0.577356   -1.340950    0.000000
siesta:      5   24.217891   -6.182221    0.000000
siesta:      6    0.713121    3.131451    0.000000
siesta:      7   -1.835176    0.512348    0.000000
siesta:      8    0.798173   -0.117710    0.000000
siesta:      9   -2.925630   -0.301838    0.000000
siesta:     10    0.093633    2.194517    0.000000
siesta:     11    1.082115  680.512190    0.000000
siesta:     12    0.381207   -2.503412    0.000000
siesta:     13    0.170044   -1.169503    0.000000
siesta:     14   -2.556360    0.828301    0.000000
siesta:     15    0.596831    0.530926    0.000000
siesta:     16    0.459644    0.045170    0.000000
siesta:     17    1.390206   -3.470597    0.000000
siesta:     18   -1.300950   -2.886486    0.000000
siesta:     19  -24.772635    3.387975    0.000000
siesta:     20   -8.856538 -671.589441    0.000000
siesta:     21    1.727250  106.550270    0.000000
siesta:     22   -3.117205 -660.535605    0.000000
siesta:     23  -18.443102  550.201873    0.000000
siesta:     24    2.468792 -120.756710    0.000000
siesta:     25   -0.025044  130.555098    0.000000
siesta:     26  -14.633083 -546.273376    0.000000
siesta:     27   27.818526 -542.756579    0.000000
siesta:     28    0.165515    2.593296    0.000000
siesta:     29    0.972696    2.735773    0.000000
siesta:     30   -0.619598   -0.085667    0.000000
siesta:     31  -27.460905    8.170711    0.000000
siesta:     32  -30.827864 -550.643266    0.000000
siesta:     33   14.919849  549.796079    0.000000
siesta:     34   -2.997423 -116.099753    0.000000
siesta:     35   17.603815  653.982030    0.000000
siesta:     36    0.357160   -5.336651    0.000000
siesta:     37  -12.064800  659.075597    0.000000
siesta:     38    1.737389 -118.048676    0.000000
siesta:     39   12.779314  667.290531    0.000000
siesta:     40    0.489490 -122.648686    0.000000
siesta:     41    5.824639  572.194778    0.000000
siesta:     42   27.771031  -10.617067    0.000000
siesta:     43    0.070132    1.649686    0.000000
siesta:     44   -0.139892   -0.625149    0.000000
siesta:     45    1.266078    0.065655    0.000000
siesta:     46   -0.240742   -0.682106    0.000000
siesta:     47  -31.582874  550.620214    0.000000
siesta:     48  -25.887216   -5.329419    0.000000
siesta:     49  -21.644863  557.172604    0.000000
siesta:     50  -27.047232   -9.355820    0.000000
siesta:     51    1.488830    0.375554    0.000000
siesta:     52   -0.878802   -0.619719    0.000000
siesta:     53    3.099360   -1.517935    0.000000
siesta:     54   -1.837345   -0.281975    0.000000
siesta:     55    1.594719    3.441071    0.000000
siesta:     56   -1.213212    1.513933    0.000000
siesta:     57    0.708364    0.302096    0.000000
siesta:     58   -1.546640   -1.504762    0.000000
siesta:     59    0.852603    4.105904    0.000000
siesta:     60    1.087911   -3.786203    0.000000
siesta:     61   -1.714196    1.373233    0.000000
siesta:     62    1.404003    0.134253    0.000000
siesta:     63    0.770590   -0.261669    0.000000
siesta:     64   -1.698397   -2.290790    0.000000
siesta:     65   -0.315762   -0.743118    0.000000
siesta:     66   18.319308 -576.045508    0.000000
siesta:     67   24.290798    4.556797    0.000000
siesta:     68    8.947912 -576.300321    0.000000
siesta:     69   -1.873063    0.229291    0.000000
siesta:     70    2.654057    0.506931    0.000000
siesta:     71    2.051572  116.802551    0.000000
siesta:     72   -1.131304 -642.590213    0.000000
siesta: ----------------------------------------
siesta:    Tot   -0.361197   -0.156543    0.000000

siesta: Stress tensor (static) (eV/Ang**3):
siesta:    -0.402054    0.011545    0.000000
siesta:     0.011545   -1.985501    0.000000
siesta:     0.000000    0.000000   -0.000016

siesta: Cell volume =       1893.226884 Ang**3

siesta: Pressure (static):
siesta:                Solid            Molecule  Units
siesta:           0.00866790          0.13984058  Ry/Bohr**3
siesta:           0.79585686         12.83968654  eV/Ang**3
siesta:        1275.11704105      20571.66812021  kBar
(Free)E+ p_basis*V_orbitals  =      -12923.144664
(Free)Eharris+ p_basis*V_orbitals  =      -12923.144644

siesta: Electric dipole (a.u.)  =    0.000000    0.000000    0.000000
siesta: Electric dipole (Debye) =    0.000000    0.000000    0.000000

* Maximum dynamic memory allocated : Node    0 =   205 MB
* Maximum dynamic memory allocated : Node    1 =    81 MB
* Maximum dynamic memory allocated : Node    2 =    83 MB
* Maximum dynamic memory allocated : Node    3 =   197 MB
* Maximum dynamic memory allocated : Node    4 =   197 MB
* Maximum dynamic memory allocated : Node    5 =    81 MB
* Maximum dynamic memory allocated : Node    6 =    82 MB
* Maximum dynamic memory allocated : Node    7 =   180 MB

* Maximum memory occured during matrixMtoO                    

timer: CPU execution times:
timer:  Routine       Calls   Time/call    Tot.time        %
timer:  siesta            1  667053.100  667053.100   100.00
timer:  Setup             1       3.881       3.881     0.00
timer:  bands             3     268.561     805.683     0.12
timer:  writewave         1       0.044       0.044     0.00
timer:  KSV_init          1       0.007       0.007     0.00
timer:  IterMD            1  666237.810  666237.810    99.88
timer:  hsparse           1       0.234       0.234     0.00
timer:  overlap           1       7.701       7.701     0.00
timer:  IterSCF         166    4012.495  666074.213    99.85
timer:  kinefsm           2       3.995       7.989     0.00
timer:  nlefsm            2      18.383      36.766     0.01
timer:  DHSCF           167      82.945   13851.851     2.08
timer:  DHSCF1            1       0.767       0.767     0.00
timer:  DHSCF2            1      32.514      32.514     0.00
timer:  REORD          1338       0.010      13.555     0.00
timer:  POISON          168       2.232     375.029     0.06
timer:  DHSCF3          167      82.518   13780.486     2.07
timer:  rhoofd          167      16.560    2765.593     0.41
timer:  cellXC          167       3.409     569.300     0.09
timer:  vmat            167      39.390    6578.057     0.99
timer:  MolMec            2       0.000       0.000     0.00
timer:  diagon          166    3927.542  651972.031    97.74
timer:  c-eigval      38467       6.661  256214.350    38.41
timer:  c-buildHS     38467       0.110    4241.607     0.64
timer:  cdiag         76813       6.878  528299.088    79.20
timer:  cdiag1        76813       0.426   32748.873     4.91
timer:  cdiag2        76813       1.906  146418.677    21.95
timer:  cdiag3        76813       3.941  302734.364    45.38
timer:  cdiag4        76813       0.206   15829.021     2.37
timer:  c-eigvec      38346       7.257  278274.023    41.72
timer:  c-buildD      38346       3.079  118075.571    17.70
timer:  DHSCF4            1      29.477      29.477     0.00
timer:  dfscf             1      27.695      27.695     0.00
timer:  overfsm           1       0.406       0.406     0.00
timer:  optical           1       5.039       5.039     0.00
  

elaps: ELAPSED times:
elaps:  Routine       Calls   Time/call    Tot.time        %
elaps:  siesta            1   83473.528   83473.528   100.00
elaps:  Setup             1       0.504       0.504     0.00
elaps:  bands             3      33.623     100.869     0.12
elaps:  writewave         1       0.006       0.006     0.00
elaps:  KSV_init          1       0.001       0.001     0.00
elaps:  IterMD            1   83371.493   83371.493    99.88
elaps:  hsparse           1       0.028       0.028     0.00
elaps:  overlap           1       0.964       0.964     0.00
elaps:  IterSCF         166     502.115   83351.144    99.85
elaps:  kinefsm           2       0.493       0.985     0.00
elaps:  nlefsm            2       2.228       4.457     0.01
elaps:  DHSCF           167      10.401    1736.965     2.08
elaps:  DHSCF1            1       0.100       0.100     0.00
elaps:  DHSCF2            1       4.062       4.062     0.00
elaps:  REORD          1338       0.001       1.817     0.00
elaps:  POISON          168       0.279      46.877     0.06
elaps:  DHSCF3          167      10.323    1723.915     2.07
elaps:  rhoofd          167       4.523     755.421     0.90
elaps:  cellXC          167       0.425      71.015     0.09
elaps:  vmat            167       4.927     822.815     0.99
elaps:  MolMec            2       0.000       0.000     0.00
elaps:  diagon          166     491.452   81580.968    97.73
elaps:  c-eigval      38467       0.833   32057.580    38.40
elaps:  c-buildHS     38467       0.015     577.291     0.69
elaps:  cdiag         76813       0.870   66858.428    80.10
elaps:  cdiag1        76813       0.053    4062.609     4.87
elaps:  cdiag2        76813       0.239   18321.159    21.95
elaps:  cdiag3        76813       0.494   37930.451    45.44
elaps:  cdiag4        76813       0.026    1990.983     2.39
elaps:  c-eigvec      38346       0.930   35650.851    42.71
elaps:  c-buildD      38346       0.364   13941.254    16.70
elaps:  DHSCF4            1       7.689       7.689     0.01
elaps:  dfscf             1       7.316       7.316     0.01
elaps:  overfsm           1       0.045       0.045     0.00
elaps:  optical           1       0.001       0.001     0.00
  
>> End of run:  27-APR-2016  16:15:07
