Siesta Version:                                        siesta-3.2-pl-3
Architecture  : x86_64-unknown-linux-gnu--unknown
Compiler flags: mpiifort -g -O2 -fPIC -xSSE4.1 -fp-model source -shared-intel 
PARALLEL version

* Running on   12 nodes in parallel
>> Start of run:   2-MAY-2016   1:07:34

                           ***********************       
                           *  WELCOME TO SIESTA  *       
                           ***********************       

reinit: Reading from standard input
************************** Dump of input data file ****************************
#(1) General system descriptors
SystemName            GRP_doping    # Descriptive name of the system
SystemLabel           GRP_doping    # Short name for naming files
%include STRUCT.fdf
%include KPT.fdf
%include BASIS.fdf
#%include TS.fdf # for transiesta calculation
#(4) DFT, Grid, SCF
XC.functional         GGA           # LDA or GGA (default = LDA)
XC.authors            PBE           # CA (Ceperley-Aldr) = PZ
                                    #    (Perdew-Zunger) - LDA - Default
                                    # PW92 (Perdew-Wang-92) - LDA
                                    # PBE (Perdew-Burke-Ernzerhof) - GGA
MeshCutoff            200.000000    Ry      # Default: 50.0 Ry ~ 0.444 Bohr
                                    #         100.0 Ry ~ 0.314 Bohr
MaxSCFIterations      500           # Default: 50
DM.MixingWeight       0.05          # Default: 0.25
DM.NumberPulay        10            # Default: 0
DM.PulayOnFile        F             # SystemLabel.P1, SystemLabel.P2
DM.Tolerance          1.d-4         # Default: 1.d-4
DM.UseSaveDM          .true.        # because of the bug
SCFMustConverge       .true.
NeglNonOverlapInt     F             # Default: F
#(5) Eigenvalue problem: order-N or diagonalization
SolutionMethod        Diagon        # or Transiesta
ElectronicTemperature 300.0 K       # Default: 300.0 K
#(6) Molecular dynamics and relaxations
#MD.TypeOfRun          CG            # Type of dynamics:
#MD.VariableCell       F
#MD.NumCGsteps         0           # 0 for single-point / 100 for gopt
#MD.MaxCGDispl         0.2 Bohr      # Default: 0.2 Bohr
#MD.MaxForceTol        0.02 eV/Ang   # Default: 0.04 eV/Ang
#MD.MaxStressTol       1.0 GPa       # Default: 1.0 GPa
# Geometry Constraints
#%block GeometryConstraints
#	position from 1 to 44
#%endblock GeometryConstraints
BandLinesScale   pi/a
%block BandLines
 1   0.00000000  0.00000000  0.00000000
50   0.00000000  0.07809418  0.00000000
50   0.04509075  0.07809242  0.00000000
20   0.00000000  0.00000000  0.00000000
%endblock BandLines
************************** End of input data file *****************************

reinit: -----------------------------------------------------------------------
reinit: System Name: GRP_doping
reinit: -----------------------------------------------------------------------
reinit: System Label: GRP_doping                                                  
reinit: -----------------------------------------------------------------------

initatom: Reading input for the pseudopotentials and atomic orbitals ----------
 Species number:            1  Label: B Atomic number:           5
 Species number:            2  Label: C Atomic number:           6
Ground state valence configuration:   2s02  2p01
Reading pseudopotential information in formatted form from B.psf

Valence configuration for pseudopotential generation:
2s( 2.00) rc: 1.74
2p( 1.00) rc: 1.74
3d( 0.00) rc: 1.74
4f( 0.00) rc: 1.74
Ground state valence configuration:   2s02  2p02
Reading pseudopotential information in formatted form from C.psf

Valence configuration for pseudopotential generation:
2s( 2.00) rc: 1.54
2p( 2.00) rc: 1.54
3d( 0.00) rc: 1.54
4f( 0.00) rc: 1.54
For B, standard SIESTA heuristics set lmxkb to 3
 (one more than the basis l, including polarization orbitals).
Use PS.lmax or PS.KBprojectors blocks to override.
For C, standard SIESTA heuristics set lmxkb to 3
 (one more than the basis l, including polarization orbitals).
Use PS.lmax or PS.KBprojectors blocks to override.

<basis_specs>
===============================================================================
B                    Z=   5    Mass=  10.810        Charge= 0.17977+309
Lmxo=1 Lmxkb= 3    BasisType=split      Semic=F
L=0  Nsemic=0  Cnfigmx=2
          n=1  nzeta=2  polorb=0
            splnorm:   0.15000    
               vcte:    0.0000    
               rinn:    0.0000    
                rcs:    0.0000      0.0000    
            lambdas:    1.0000      1.0000    
L=1  Nsemic=0  Cnfigmx=2
          n=1  nzeta=2  polorb=1
            splnorm:   0.15000    
               vcte:    0.0000    
               rinn:    0.0000    
                rcs:    0.0000      0.0000    
            lambdas:    1.0000      1.0000    
-------------------------------------------------------------------------------
L=0  Nkbl=1  erefs: 0.17977+309
L=1  Nkbl=1  erefs: 0.17977+309
L=2  Nkbl=1  erefs: 0.17977+309
L=3  Nkbl=1  erefs: 0.17977+309
===============================================================================
</basis_specs>

atom: Called for B                     (Z =   5)

read_vps: Pseudopotential generation method:
read_vps: ATM3      Troullier-Martins                       
Total valence charge:    3.00000

read_vps: Pseudopotential includes a core correction:
read_vps: Pseudo-core for xc-correction

xc_check: Exchange-correlation functional:
xc_check: GGA Perdew, Burke & Ernzerhof 1996
V l=0 = -2*Zval/r beyond r=  1.7165
V l=1 = -2*Zval/r beyond r=  1.7165
V l=2 = -2*Zval/r beyond r=  1.7165
V l=3 = -2*Zval/r beyond r=  1.6951
All V_l potentials equal beyond r=  1.7165
This should be close to max(r_c) in ps generation
All pots = -2*Zval/r beyond r=  1.7165

VLOCAL1: 99.0% of the norm of Vloc inside     14.733 Ry
VLOCAL1: 99.9% of the norm of Vloc inside     33.577 Ry
atom: Maximum radius for 4*pi*r*r*local-pseudopot. charge    2.04484
atom: Maximum radius for r*vlocal+2*Zval:    1.75994
GHOST: No ghost state for L =  0
GHOST: No ghost state for L =  1
GHOST: No ghost state for L =  2
GHOST: No ghost state for L =  3

KBgen: Kleinman-Bylander projectors: 
   l= 0   rc=  1.897051   el= -0.693730   Ekb=  4.595746   kbcos=  0.286105
   l= 1   rc=  1.920920   el= -0.265236   Ekb= -2.350715   kbcos= -0.315747
   l= 2   rc=  2.044840   el=  0.002055   Ekb= -0.690767   kbcos= -0.013822
   l= 3   rc=  2.149707   el=  0.003188   Ekb= -0.315358   kbcos= -0.002055

KBgen: Total number of  Kleinman-Bylander projectors:   16
atom: -------------------------------------------------------------------------

atom: SANKEY-TYPE ORBITALS:
atom: Selected multiple-zeta basis: split     

SPLIT: Orbitals with angular momentum L= 0

SPLIT: Basis orbitals for state 2s

SPLIT: PAO cut-off radius determined from an
SPLIT: energy shift=  0.007350 Ry

   izeta = 1
                 lambda =    1.000000
                     rc =    5.422032
                 energy =   -0.686029
                kinetic =    0.576707
    potential(screened) =   -1.262736
       potential(ionic) =   -3.271094

   izeta = 2
                 rmatch =    4.222573
              splitnorm =    0.150000
                 energy =   -0.602132
                kinetic =    0.858975
    potential(screened) =   -1.461107
       potential(ionic) =   -3.582536

SPLIT: Orbitals with angular momentum L= 1

SPLIT: Basis orbitals for state 2p

SPLIT: PAO cut-off radius determined from an
SPLIT: energy shift=  0.007350 Ry

   izeta = 1
                 lambda =    1.000000
                     rc =    6.790259
                 energy =   -0.258578
                kinetic =    1.481412
    potential(screened) =   -1.739989
       potential(ionic) =   -3.657461

   izeta = 2
                 rmatch =    4.608740
              splitnorm =    0.150000
                 energy =   -0.173757
                kinetic =    2.186690
    potential(screened) =   -2.360447
       potential(ionic) =   -4.464260

POLgen: Perturbative polarization orbital with L=  2

POLgen: Polarization orbital for state 2p

   izeta = 1
                     rc =    6.790259
                 energy =    0.684082
                kinetic =    1.471481
    potential(screened) =   -0.787399
       potential(ionic) =   -2.406985
atom: Total number of Sankey-type orbitals: 13

atm_pop: Valence configuration (for local Pseudopot. screening):
 2s( 2.00)                                                            
 2p( 1.00)                                                            
Vna: chval, zval:    3.00000   3.00000

Vna:  Cut-off radius for the neutral-atom potential:   6.790259
comcore: Pseudo-core radius Rcore=  2.122997

atom: _________________________________________________________________________

<basis_specs>
===============================================================================
C                    Z=   6    Mass=  12.010        Charge= 0.17977+309
Lmxo=1 Lmxkb= 3    BasisType=split      Semic=F
L=0  Nsemic=0  Cnfigmx=2
          n=1  nzeta=2  polorb=0
            splnorm:   0.15000    
               vcte:    0.0000    
               rinn:    0.0000    
                rcs:    0.0000      0.0000    
            lambdas:    1.0000      1.0000    
L=1  Nsemic=0  Cnfigmx=2
          n=1  nzeta=2  polorb=1
            splnorm:   0.15000    
               vcte:    0.0000    
               rinn:    0.0000    
                rcs:    0.0000      0.0000    
            lambdas:    1.0000      1.0000    
-------------------------------------------------------------------------------
L=0  Nkbl=1  erefs: 0.17977+309
L=1  Nkbl=1  erefs: 0.17977+309
L=2  Nkbl=1  erefs: 0.17977+309
L=3  Nkbl=1  erefs: 0.17977+309
===============================================================================
</basis_specs>

atom: Called for C                     (Z =   6)

read_vps: Pseudopotential generation method:
read_vps: ATM3      Troullier-Martins                       
Total valence charge:    4.00000

read_vps: Pseudopotential includes a core correction:
read_vps: Pseudo-core for xc-correction

xc_check: Exchange-correlation functional:
xc_check: GGA Perdew, Burke & Ernzerhof 1996
V l=0 = -2*Zval/r beyond r=  1.5227
V l=1 = -2*Zval/r beyond r=  1.5227
V l=2 = -2*Zval/r beyond r=  1.5227
V l=3 = -2*Zval/r beyond r=  1.5038
All V_l potentials equal beyond r=  1.5227
This should be close to max(r_c) in ps generation
All pots = -2*Zval/r beyond r=  1.5227

VLOCAL1: 99.0% of the norm of Vloc inside     18.722 Ry
VLOCAL1: 99.9% of the norm of Vloc inside     42.668 Ry
atom: Maximum radius for 4*pi*r*r*local-pseudopot. charge    1.83678
atom: Maximum radius for r*vlocal+2*Zval:    1.58088
GHOST: No ghost state for L =  0
GHOST: No ghost state for L =  1
GHOST: No ghost state for L =  2
GHOST: No ghost state for L =  3

KBgen: Kleinman-Bylander projectors: 
   l= 0   rc=  1.704034   el= -1.009801   Ekb=  5.335044   kbcos=  0.316824
   l= 1   rc=  1.704034   el= -0.388707   Ekb= -3.785862   kbcos= -0.366464
   l= 2   rc=  1.791422   el=  0.001971   Ekb= -0.970471   kbcos= -0.009212
   l= 3   rc=  1.859892   el=  0.003065   Ekb= -0.399525   kbcos= -0.001223

KBgen: Total number of  Kleinman-Bylander projectors:   16
atom: -------------------------------------------------------------------------

atom: SANKEY-TYPE ORBITALS:
atom: Selected multiple-zeta basis: split     

SPLIT: Orbitals with angular momentum L= 0

SPLIT: Basis orbitals for state 2s

SPLIT: PAO cut-off radius determined from an
SPLIT: energy shift=  0.007350 Ry

   izeta = 1
                 lambda =    1.000000
                     rc =    4.632753
                 energy =   -1.002270
                kinetic =    0.855760
    potential(screened) =   -1.858031
       potential(ionic) =   -5.417575

   izeta = 2
                 rmatch =    3.431921
              splitnorm =    0.150000
                 energy =   -0.867111
                kinetic =    1.300804
    potential(screened) =   -2.167915
       potential(ionic) =   -5.962684

SPLIT: Orbitals with angular momentum L= 1

SPLIT: Basis orbitals for state 2p

SPLIT: PAO cut-off radius determined from an
SPLIT: energy shift=  0.007350 Ry

   izeta = 1
                 lambda =    1.000000
                     rc =    5.658549
                 energy =   -0.381140
                kinetic =    2.399701
    potential(screened) =   -2.780841
       potential(ionic) =   -6.206085

   izeta = 2
                 rmatch =    3.653288
              splitnorm =    0.150000
                 energy =   -0.249149
                kinetic =    3.542762
    potential(screened) =   -3.791911
       potential(ionic) =   -7.581078

POLgen: Perturbative polarization orbital with L=  2

POLgen: Polarization orbital for state 2p

   izeta = 1
                     rc =    5.658549
                 energy =    1.109913
                kinetic =    2.304789
    potential(screened) =   -1.194876
       potential(ionic) =   -4.013592
atom: Total number of Sankey-type orbitals: 13

atm_pop: Valence configuration (for local Pseudopot. screening):
 2s( 2.00)                                                            
 2p( 2.00)                                                            
Vna: chval, zval:    4.00000   4.00000

Vna:  Cut-off radius for the neutral-atom potential:   5.658549
comcore: Pseudo-core radius Rcore=  1.791422

atom: _________________________________________________________________________

prinput: Basis input ----------------------------------------------------------

PAO.BasisType split     

%block ChemicalSpeciesLabel
    1    5 B                       # Species index, atomic number, species label
    2    6 C                       # Species index, atomic number, species label
%endblock ChemicalSpeciesLabel

%block PAO.Basis                 # Define Basis set
B                     2                    # Species label, number of l-shells
 n=2   0   2                         # n, l, Nzeta 
   5.422      4.223   
   1.000      1.000   
 n=2   1   2 P   1                   # n, l, Nzeta, Polarization, NzetaPol
   6.790      4.609   
   1.000      1.000   
C                     2                    # Species label, number of l-shells
 n=2   0   2                         # n, l, Nzeta 
   4.633      3.432   
   1.000      1.000   
 n=2   1   2 P   1                   # n, l, Nzeta, Polarization, NzetaPol
   5.659      3.653   
   1.000      1.000   
%endblock PAO.Basis

prinput: ----------------------------------------------------------------------

coor:   Atomic-coordinates input format  =     Fractional

siesta: Atomic coordinates (Bohr) and species
siesta:     -2.35420  38.89134   0.00000  1        1
siesta:     -2.35420  41.57980   0.00000  1        2
siesta:     -0.02582  21.41544   0.00000  1        3
siesta:      2.30256  22.75985   0.00000  1        4
siesta:      2.30256  25.44831   0.00000  1        5
siesta:     -2.35420  22.75985   0.00000  1        6
siesta:     -2.35420  25.44831   0.00000  1        7
siesta:      4.63094  26.79272   0.00000  1        8
siesta:      4.63094  29.48119   0.00000  1        9
siesta:     -0.02582  26.79272   0.00000  1       10
siesta:     -0.02582  29.48119   0.00000  1       11
siesta:      2.30256  30.82560   0.00000  1       12
siesta:      2.30256  33.51406   0.00000  1       13
siesta:     -0.02582  34.85847   0.00000  1       14
siesta:     -0.02582  37.54693   0.00000  1       15
siesta:     -0.02582  42.92421   0.00000  1       16
siesta:     -0.02582   2.59549   0.00000  2       17
siesta:     -0.02582   5.28395   0.00000  2       18
siesta:      2.30256  38.89134   0.00000  2       19
siesta:      2.30256  41.57980   0.00000  2       20
siesta:      4.63094  34.85847   0.00000  2       21
siesta:      4.63094  37.54693   0.00000  2       22
siesta:      6.95932  30.82560   0.00000  2       23
siesta:      6.95932  33.51406   0.00000  2       24
siesta:      9.28770  26.79272   0.00000  2       25
siesta:      9.28770  29.48119   0.00000  2       26
siesta:     -4.68258  34.85847   0.00000  2       27
siesta:     -4.68258  37.54693   0.00000  2       28
siesta:      2.30256   6.62836   0.00000  2       29
siesta:      2.30256   9.31683   0.00000  2       30
siesta:      4.63094  10.66124   0.00000  2       31
siesta:      4.63094  13.34970   0.00000  2       32
siesta:      6.95932  14.69411   0.00000  2       33
siesta:      6.95932  17.38257   0.00000  2       34
siesta:      9.28770  18.72698   0.00000  2       35
siesta:      9.28770  21.41544   0.00000  2       36
siesta:     11.61608  22.75985   0.00000  2       37
siesta:     11.61608  25.44831   0.00000  2       38
siesta:     -2.35420   6.62836   0.00000  2       39
siesta:     -2.35420   9.31683   0.00000  2       40
siesta:     -0.02582  10.66124   0.00000  2       41
siesta:     -0.02582  13.34970   0.00000  2       42
siesta:      2.30256  14.69411   0.00000  2       43
siesta:      2.30256  17.38257   0.00000  2       44
siesta:      4.63094  18.72698   0.00000  2       45
siesta:      4.63094  21.41544   0.00000  2       46
siesta:      6.95932  22.75985   0.00000  2       47
siesta:      6.95932  25.44831   0.00000  2       48
siesta:     -4.68258  10.66124   0.00000  2       49
siesta:     -4.68258  13.34970   0.00000  2       50
siesta:     -2.35420  14.69411   0.00000  2       51
siesta:     -2.35420  17.38257   0.00000  2       52
siesta:     -0.02582  18.72698   0.00000  2       53
siesta:     -7.01096  14.69411   0.00000  2       54
siesta:     -7.01096  17.38257   0.00000  2       55
siesta:     -4.68258  18.72698   0.00000  2       56
siesta:     -4.68258  21.41544   0.00000  2       57
siesta:     -9.33934  18.72698   0.00000  2       58
siesta:     -9.33934  21.41544   0.00000  2       59
siesta:     -7.01096  22.75985   0.00000  2       60
siesta:     -7.01096  25.44831   0.00000  2       61
siesta:    -11.66772  22.75985   0.00000  2       62
siesta:    -11.66772  25.44831   0.00000  2       63
siesta:     -9.33934  26.79272   0.00000  2       64
siesta:     -9.33934  29.48119   0.00000  2       65
siesta:     -4.68258  26.79272   0.00000  2       66
siesta:     -4.68258  29.48119   0.00000  2       67
siesta:     -2.35420  30.82560   0.00000  2       68
siesta:     -2.35420  33.51406   0.00000  2       69
siesta:     -7.01096  30.82560   0.00000  2       70
siesta:     -7.01096  33.51406   0.00000  2       71
siesta:     -0.02582  45.61267   0.00000  2       72

siesta: System type = slab      

initatomlists: Number of atoms, orbitals, and projectors:     72   936  1152

siesta: ******************** Simulation parameters ****************************
siesta:
siesta: The following are some of the parameters of the simulation.
siesta: A complete list of the parameters used, including default values,
siesta: can be found in file out.fdf
siesta:
redata: Non-Collinear-spin run           =     F
redata: SpinPolarized (Up/Down) run      =     F
redata: Number of spin components        =     1
redata: Long output                      =     F
redata: Number of Atomic Species         =        2
redata: Charge density info will appear in .RHO file
redata: Write Mulliken Pop.              =     NO
redata: Mesh Cutoff                      =   200.0000  Ry
redata: Net charge of the system         =     0.0000 |e|
redata: Max. number of SCF Iter          =      500
redata: SCF convergence failure will abort job
redata: Performing Pulay mixing using    =    10 iterations
redata: Mix DM in first SCF step ?       =     F
redata: Write Pulay info on disk?        =     F
redata: Discard 1st Pulay DM after  kick =     F
redata: New DM Mixing Weight             =     0.0500
redata: New DM Occupancy tolerance       = 0.000000000001
redata: No kicks to SCF
redata: DM Mixing Weight for Kicks       =     0.5000
redata: DM Tolerance for SCF             =     0.000100
redata: Require Energy convergence for SCF =     F
redata: DM Energy tolerance for SCF      =     0.000100 eV
redata: Require Harris convergence for SCF =     F
redata: DM Harris energy tolerance for SCF =     0.000100 eV
redata: Using Saved Data (generic)   =     F
redata: Use continuation files for DM    =     T
redata: Neglect nonoverlap interactions  =     F
redata: Method of Calculation            =     Diagonalization
redata: Divide and Conquer               =     T
redata: Electronic Temperature           =     0.0019  Ry
redata: Fix the spin of the system       =     F
redata: Dynamics option                  =     Verlet MD run
redata: Initial MD time step             =        1
redata:   Final MD time step             =        1
redata: Length of MD time step           =     1.0000  fs
redata: Initial Temperature of MD run    =     0.0000  K
redata: Perform a MD quench              =     F
redata: ***********************************************************************
Total number of electrons:   272.000000
Total ionic charge:   272.000000

* ProcessorY, Blocksize:    3  24

k-point displ. along   1 input, could be:     0.50    0.00
k-point displ. along   2 input, could be:     0.50    0.00
 Kpoints in:          231 . Kpoints trimmed:          231

siesta: k-grid: Number of k-points =   231
siesta: k-grid: Cutoff (effective) =     5.000 Ang
siesta: k-grid: Supercell and displacements
siesta: k-grid:   21   0   0      0.500
siesta: k-grid:    0  21   0      0.500
siesta: k-grid:    0   0   1      0.000
Naive supercell factors:     2    2    2

superc: Internal auxiliary supercell:     2 x     2 x     2  =       8
superc: Number of atoms, orbitals, and projectors:    576   7488   9216

* Maximum dynamic memory allocated =     4 MB

siesta:                 ==============================
                            Begin MD step =      1
                        ==============================

superc: Internal auxiliary supercell:     2 x     2 x     2  =       8
superc: Number of atoms, orbitals, and projectors:    576   7488   9216

outcell: Unit cell vectors (Ang):
       12.804619    7.392750    0.000000
        0.000000   14.785500    0.000000
        0.000000    0.000000   10.000000

outcell: Cell vector modules (Ang)   :   14.785500   14.785500   10.000000
outcell: Cell angles (23,13,12) (deg):     90.0000     90.0000     60.0000
outcell: Cell volume (Ang**3)        :   1893.2269
New_DM. Step:     1
Initializing Density Matrix...

InitMesh: MESH =   120 x   120 x    90 =     1296000
InitMesh: Mesh cutoff (required, used) =   200.000   223.865 Ry

* Maximum dynamic memory allocated =   157 MB

stepf: Fermi-Dirac step function

siesta: Program's energy decomposition (eV):
siesta: Ebs     =     -5586.618388
siesta: Eions   =     16354.103692
siesta: Ena     =      4337.231137
siesta: Ekin    =      5534.369168
siesta: Enl     =       779.182574
siesta: DEna    =        -0.000010
siesta: DUscf   =         0.000000
siesta: DUext   =         0.000000
siesta: Exc     =     -4186.438383
siesta: eta*DQ  =         0.000000
siesta: Emadel  =         0.000000
siesta: Emeta   =         0.000000
siesta: Emolmec =         0.000000
siesta: Ekinion =         0.000000
siesta: Eharris =     -9674.159883
siesta: Etot    =     -9889.759206
siesta: FreeEng =     -9889.759206

siesta: iscf   Eharris(eV)      E_KS(eV)   FreeEng(eV)   dDmax  Ef(eV)
siesta:    1    -9674.1599    -9889.7592    -9889.7592  7.2485 -8.2923
timer: Routine,Calls,Time,% = IterSCF        1    3057.438  99.59
elaps: Routine,Calls,Wall,% = IterSCF        1     255.394  99.59
siesta:    2   -15495.4222    -8782.0377    -8782.1331 17.0069 -6.1142
siesta:    3    -9691.2896    -9715.2416    -9715.2979  1.8700 -5.3605
siesta:    4    -9635.5850    -9633.4746    -9633.4789  1.3986 -5.0010
siesta:    5    -9562.7656    -9566.2615    -9566.2999  1.3031 -5.3438
siesta:    6    -9535.9402    -9534.2408    -9534.2832  1.2190 -5.1978
siesta:    7    -9520.5568    -9507.7740    -9507.7955  0.7169 -5.3016
siesta:    8    -9518.8226    -9499.5271    -9499.5848  0.9063 -5.1572
siesta:    9    -9516.3534    -9497.2296    -9497.2732  0.7059 -5.4325
siesta:   10    -9515.6480    -9489.6245    -9489.6552  0.7206 -5.2145
siesta:   11    -9520.1507    -9482.7505    -9482.8009  0.6099 -5.0102
siesta:   12    -9516.0774    -9483.4640    -9483.5047  0.4603 -5.1150
siesta:   13    -9516.9230    -9484.9448    -9484.9989  0.4680 -5.0925
siesta:   14    -9515.3732    -9489.4256    -9489.4668  0.4222 -5.1437
siesta:   15    -9514.3370    -9493.5312    -9493.5842  0.3863 -5.1961
siesta:   16    -9513.0763    -9499.5164    -9499.5665  0.3147 -5.2326
siesta:   17    -9512.5802    -9502.7033    -9502.7520  0.2604 -5.2315
siesta:   18    -9512.5929    -9503.0760    -9503.1229  0.2641 -5.2363
siesta:   19    -9512.4504    -9511.0222    -9511.0699  0.4065 -5.1343
siesta:   20    -9512.3305    -9508.2952    -9508.3730  0.1925 -5.2327
siesta:   21    -9512.2501    -9508.7837    -9508.8279  0.1431 -5.2248
siesta:   22    -9512.2348    -9509.4135    -9509.4626  0.1367 -5.2214
siesta:   23    -9512.2035    -9510.6800    -9510.7302  0.1204 -5.2275
siesta:   24    -9512.2025    -9513.8881    -9513.9429  0.1825 -5.2030
siesta:   25    -9512.1770    -9514.0011    -9514.0733  0.0686 -5.2177
siesta:   26    -9512.1634    -9514.6180    -9514.6836  0.0364 -5.2099
siesta:   27    -9512.1560    -9515.0109    -9515.0798  0.0451 -5.2024
siesta:   28    -9512.1634    -9514.4100    -9514.4832  0.0549 -5.2095
siesta:   29    -9512.1648    -9513.9184    -9513.9817  0.0464 -5.2060
siesta:   30    -9512.1546    -9513.7379    -9513.7999  0.0366 -5.1954
siesta:   31    -9512.1540    -9513.5073    -9513.5782  0.0255 -5.1949
siesta:   32    -9512.1540    -9513.2972    -9513.3669  0.0177 -5.1967
siesta:   33    -9512.1565    -9513.0696    -9513.1388  0.0178 -5.2008
siesta:   34    -9512.1569    -9512.7505    -9512.8166  0.0194 -5.2010
siesta:   35    -9512.1554    -9512.4460    -9512.5117  0.0039 -5.1970
siesta:   36    -9512.1554    -9512.3454    -9512.4124  0.0031 -5.1967
siesta:   37    -9512.1551    -9512.1876    -9512.2546  0.0038 -5.1957
siesta:   38    -9512.1554    -9512.1254    -9512.1926  0.0019 -5.1964
siesta:   39    -9512.1554    -9512.1072    -9512.1740  0.0012 -5.1967
siesta:   40    -9512.1553    -9512.1267    -9512.1935  0.0011 -5.1968
siesta:   41    -9512.1554    -9512.1118    -9512.1786  0.0005 -5.1967
siesta:   42    -9512.1554    -9512.1096    -9512.1763  0.0004 -5.1967
siesta:   43    -9512.1554    -9512.1072    -9512.1740  0.0002 -5.1968
siesta:   44    -9512.1554    -9512.1262    -9512.1930  0.0002 -5.1968
siesta:   45    -9512.1554    -9512.1322    -9512.1990  0.0002 -5.1968
siesta:   46    -9512.1554    -9512.1368    -9512.2036  0.0001 -5.1968
siesta:   47    -9512.1554    -9512.1417    -9512.2085  0.0001 -5.1968

siesta: E_KS(eV) =            -9512.1454

siesta: E_KS - E_eggbox =     -9512.1454

siesta: Atomic forces (eV/Ang):
----------------------------------------
   Tot   -0.141519   -0.184638    0.000000
----------------------------------------
   Max  571.762877
   Res  144.067008    sqrt( Sum f_i^2 / 3N )
----------------------------------------
   Max  571.762877    constrained

Stress-tensor-Voigt (kbar):     -738.84    -2591.73       -0.51       15.80        0.00        0.00
(Free)E + p*V (eV/cell)    -8200.1594
Target enthalpy (eV/cell)    -9512.2122

siesta: Stress tensor (static) (eV/Ang**3):
        -0.461141    0.009863    0.000000
         0.009863   -1.617615    0.000000
         0.000000    0.000000   -0.000318

siesta: Pressure (static):       1110.35987061  kBar

siesta: Stress tensor (total) (eV/Ang**3):
        -0.461141    0.009863    0.000000
         0.009863   -1.617615    0.000000
         0.000000    0.000000   -0.000318

siesta: Pressure (total):       1110.35987061  kBar

siesta: Temp_ion =       0.000 K

* Maximum dynamic memory allocated =   170 MB
Computing bands...

siesta: Program's energy decomposition (eV):
siesta: Ebs     =     -4204.386679
siesta: Eions   =     16354.103692
siesta: Ena     =      4337.231137
siesta: Ekin    =      8363.933902
siesta: Enl     =      -846.110433
siesta: DEna    =      -764.043807
siesta: DUscf   =       103.334374
siesta: DUext   =         0.000000
siesta: Exc     =     -4352.386918
siesta: eta*DQ  =         0.000000
siesta: Emadel  =         0.000000
siesta: Emeta   =         0.000000
siesta: Emolmec =         0.000000
siesta: Ekinion =         0.000000
siesta: Eharris =     -9512.155393
siesta: Etot    =     -9512.145437
siesta: FreeEng =     -9512.212212

siesta: Final energy (eV):
siesta:  Band Struct. =   -4204.386679
siesta:       Kinetic =    8363.933902
siesta:       Hartree =   26702.732843
siesta:    Ext. field =       0.000000
siesta:   Exch.-corr. =   -4352.386918
siesta:  Ion-electron =  -61445.628541
siesta:       Ion-ion =   21219.203278
siesta:       Ekinion =       0.000000
siesta:         Total =   -9512.145437

siesta: Atomic forces (eV/Ang):
siesta:      1    1.420490  104.758381    0.000000
siesta:      2    1.229476 -393.485479    0.000000
siesta:      3   -0.552258   -3.300026    0.000000
siesta:      4    5.371154   -3.266922    0.000000
siesta:      5   -2.893846    3.600249    0.000000
siesta:      6   -3.115422   -3.689749    0.000000
siesta:      7   -4.946688    3.376969    0.000000
siesta:      8    4.928132   -4.105228    0.000000
siesta:      9    1.495298    2.828148    0.000000
siesta:     10    1.299231   -0.509760    0.000000
siesta:     11    0.002362 -411.001335    0.000000
siesta:     12   14.573693    0.936104    0.000000
siesta:     13   17.560461 -397.161241    0.000000
siesta:     14    3.233760  107.526439    0.000000
siesta:     15   -1.058319 -391.393365    0.000000
siesta:     16   -5.769486  108.387406    0.000000
siesta:     17   -2.867840  408.856681    0.000000
siesta:     18    8.204921 -125.313326    0.000000
siesta:     19   -7.665097  115.406651    0.000000
siesta:     20    4.106333 -544.853285    0.000000
siesta:     21   24.338603   -0.631894    0.000000
siesta:     22   30.872482 -548.916504    0.000000
siesta:     23    7.235493    1.739906    0.000000
siesta:     24   -2.722395    2.223444    0.000000
siesta:     25    2.855222    1.233264    0.000000
siesta:     26   -2.062321    0.661981    0.000000
siesta:     27  -26.221701    4.821765    0.000000
siesta:     28  -26.831270 -542.345232    0.000000
siesta:     29   17.716833  402.629621    0.000000
siesta:     30   -2.494128 -122.760725    0.000000
siesta:     31   36.171713  550.063386    0.000000
siesta:     32   26.693943   -2.300351    0.000000
siesta:     33   -2.768432   -2.339631    0.000000
siesta:     34    2.205063   -0.530956    0.000000
siesta:     35   -1.273860   -0.398236    0.000000
siesta:     36    2.852758   -1.734444    0.000000
siesta:     37   -0.175943    6.913714    0.000000
siesta:     38   -0.300602   -6.918228    0.000000
siesta:     39  -24.988065  556.601480    0.000000
siesta:     40    4.017239 -127.982955    0.000000
siesta:     41    0.153325  408.518654    0.000000
siesta:     42   -5.384173 -123.073849    0.000000
siesta:     43   36.025563  558.846854    0.000000
siesta:     44   17.925020   -7.022085    0.000000
siesta:     45   -0.404859    2.080046    0.000000
siesta:     46    2.709238   -1.992426    0.000000
siesta:     47    0.400890    0.261214    0.000000
siesta:     48    2.395344   -2.145848    0.000000
siesta:     49  -35.751283  549.315174    0.000000
siesta:     50  -24.516372   -0.928724    0.000000
siesta:     51  -31.684470  408.284500    0.000000
siesta:     52  -19.282129   -3.314084    0.000000
siesta:     53   -0.008183  571.762877    0.000000
siesta:     54    2.095051   -2.765041    0.000000
siesta:     55   -2.373698   -0.333934    0.000000
siesta:     56    1.152358    1.739186    0.000000
siesta:     57   -2.797491   -1.295957    0.000000
siesta:     58    1.048927   -0.880698    0.000000
siesta:     59   -2.325142   -1.269918    0.000000
siesta:     60   -0.392819    0.219969    0.000000
siesta:     61   -0.095133   -0.347496    0.000000
siesta:     62    0.274363    7.092998    0.000000
siesta:     63    0.351540   -7.243673    0.000000
siesta:     64   -2.569922    1.549471    0.000000
siesta:     65    1.446595    0.518656    0.000000
siesta:     66   -2.601524    1.460453    0.000000
siesta:     67    0.950445   -1.827979    0.000000
siesta:     68  -22.084971    3.178722    0.000000
siesta:     69  -14.274903 -555.324761    0.000000
siesta:     70   -2.743049    0.477135    0.000000
siesta:     71    2.777234    2.259422    0.000000
siesta:     72   -0.234278 -555.610214    0.000000
siesta: ----------------------------------------
siesta:    Tot   -0.141519   -0.184638    0.000000

siesta: Stress tensor (static) (eV/Ang**3):
siesta:    -0.461141    0.009863    0.000000
siesta:     0.009863   -1.617615    0.000000
siesta:     0.000000    0.000000   -0.000318

siesta: Cell volume =       1893.226884 Ang**3

siesta: Pressure (static):
siesta:                Solid            Molecule  Units
siesta:           0.00754792          0.11065637  Ry/Bohr**3
siesta:           0.69302463         10.16009129  eV/Ang**3
siesta:        1110.35987061      16278.43680868  kBar
(Free)E+ p_basis*V_orbitals  =       -9476.419340
(Free)Eharris+ p_basis*V_orbitals  =       -9476.433025

siesta: Electric dipole (a.u.)  =    0.000000    0.000000    0.000000
siesta: Electric dipole (Debye) =    0.000000    0.000000    0.000000

* Maximum dynamic memory allocated : Node    0 =   170 MB
* Maximum dynamic memory allocated : Node    1 =    66 MB
* Maximum dynamic memory allocated : Node    2 =    70 MB
* Maximum dynamic memory allocated : Node    3 =   157 MB
* Maximum dynamic memory allocated : Node    4 =   165 MB
* Maximum dynamic memory allocated : Node    5 =    62 MB
* Maximum dynamic memory allocated : Node    6 =    63 MB
* Maximum dynamic memory allocated : Node    7 =   154 MB
* Maximum dynamic memory allocated : Node    8 =   154 MB
* Maximum dynamic memory allocated : Node    9 =    61 MB
* Maximum dynamic memory allocated : Node   10 =    63 MB
* Maximum dynamic memory allocated : Node   11 =   146 MB

* Maximum memory occured during matrixMtoO                    

timer: CPU execution times:
timer:  Routine       Calls   Time/call    Tot.time        %
timer:  siesta            1  139459.861  139459.861   100.00
timer:  Setup             1       3.333       3.333     0.00
timer:  bands             3     226.451     679.352     0.49
timer:  writewave         1       0.023       0.023     0.00
timer:  KSV_init          1       0.003       0.003     0.00
timer:  IterMD            1  138770.229  138770.229    99.51
timer:  hsparse           1       0.285       0.285     0.00
timer:  overlap           1       7.421       7.421     0.01
timer:  IterSCF          47    2949.269  138615.637    99.39
timer:  kinefsm           2       3.775       7.549     0.01
timer:  nlefsm            2      20.203      40.405     0.03
timer:  DHSCF            48      81.063    3891.045     2.79
timer:  DHSCF1            1       1.189       1.189     0.00
timer:  DHSCF2            1      32.595      32.595     0.02
timer:  REORD           386       0.002       0.847     0.00
timer:  POISON           49       0.449      21.987     0.02
timer:  DHSCF3           48      79.763    3828.644     2.75
timer:  rhoofd           48      17.775     853.221     0.61
timer:  cellXC           48       2.444     117.292     0.08
timer:  vmat             48      36.198    1737.527     1.25
timer:  MolMec            2       0.000       0.000     0.00
timer:  diagon           47    2867.111  134754.196    96.63
timer:  c-eigval      10978       5.599   61466.296    44.07
timer:  c-buildHS     10978       0.036     397.281     0.28
timer:  cdiag         21835       5.693  124310.824    89.14
timer:  cdiag1        21835       0.262    5716.418     4.10
timer:  cdiag2        21835       1.836   40089.362    28.75
timer:  cdiag3        21835       3.390   74018.930    53.08
timer:  cdiag4        21835       0.086    1881.784     1.35
timer:  c-eigvec      10857       5.856   63577.150    45.59
timer:  c-buildD      10857       0.952   10330.531     7.41
timer:  DHSCF4            1      28.317      28.317     0.02
timer:  dfscf             1      26.212      26.212     0.02
timer:  overfsm           1       0.324       0.324     0.00
timer:  optical           1       6.345       6.345     0.00
  

elaps: ELAPSED times:
elaps:  Routine       Calls   Time/call    Tot.time        %
elaps:  siesta            1   11649.002   11649.002   100.00
elaps:  Setup             1       0.279       0.279     0.00
elaps:  bands             3      18.931      56.792     0.49
elaps:  writewave         1       0.002       0.002     0.00
elaps:  KSV_init          1       0.000       0.000     0.00
elaps:  IterMD            1   11591.397   11591.397    99.51
elaps:  hsparse           1       0.029       0.029     0.00
elaps:  overlap           1       0.715       0.715     0.01
elaps:  IterSCF          47     246.351   11578.484    99.39
elaps:  kinefsm           2       0.366       0.732     0.01
elaps:  nlefsm            2       1.726       3.453     0.03
elaps:  DHSCF            48       6.820     327.362     2.81
elaps:  DHSCF1            1       0.102       0.102     0.00
elaps:  DHSCF2            1       2.720       2.720     0.02
elaps:  REORD           386       0.000       0.114     0.00
elaps:  POISON           49       0.038       1.847     0.02
elaps:  DHSCF3           48       6.663     319.819     2.75
elaps:  rhoofd           48       3.151     151.252     1.30
elaps:  cellXC           48       0.204       9.778     0.08
elaps:  vmat             48       3.024     145.145     1.25
elaps:  MolMec            2       0.000       0.000     0.00
elaps:  diagon           47     239.495   11256.256    96.63
elaps:  c-eigval      10978       0.468    5134.231    44.07
elaps:  c-buildHS     10978       0.004      41.830     0.36
elaps:  cdiag         21835       0.471   10287.424    88.31
elaps:  cdiag1        21835       0.021     466.708     4.01
elaps:  cdiag2        21835       0.154    3351.684    28.77
elaps:  cdiag3        21835       0.284    6191.617    53.15
elaps:  cdiag4        21835       0.007     151.455     1.30
elaps:  c-eigvec      10857       0.482    5229.883    44.90
elaps:  c-buildD      10857       0.087     943.333     8.10
elaps:  DHSCF4            1       4.674       4.674     0.04
elaps:  dfscf             1       4.414       4.414     0.04
elaps:  overfsm           1       0.034       0.034     0.00
elaps:  optical           1       0.000       0.000     0.00
  
>> End of run:   2-MAY-2016   4:21:43
