Siesta Version:                                        siesta-3.2-pl-3
Architecture  : x86_64-unknown-linux-gnu--unknown
Compiler flags: mpiifort -g -O2 -fPIC -xSSE4.1 -fp-model source -shared-intel 
PARALLEL version

* Running on    8 nodes in parallel
>> Start of run:   2-MAY-2016   2:34:01

                           ***********************       
                           *  WELCOME TO SIESTA  *       
                           ***********************       

reinit: Reading from standard input
************************** Dump of input data file ****************************
#(1) General system descriptors
SystemName            GRP_doping    # Descriptive name of the system
SystemLabel           GRP_doping    # Short name for naming files
%include STRUCT.fdf
%include KPT.fdf
%include BASIS.fdf
#%include TS.fdf # for transiesta calculation
#(4) DFT, Grid, SCF
XC.functional         GGA           # LDA or GGA (default = LDA)
XC.authors            PBE           # CA (Ceperley-Aldr) = PZ
                                    #    (Perdew-Zunger) - LDA - Default
                                    # PW92 (Perdew-Wang-92) - LDA
                                    # PBE (Perdew-Burke-Ernzerhof) - GGA
MeshCutoff            200.000000    Ry      # Default: 50.0 Ry ~ 0.444 Bohr
                                    #         100.0 Ry ~ 0.314 Bohr
MaxSCFIterations      500           # Default: 50
DM.MixingWeight       0.05          # Default: 0.25
DM.NumberPulay        10            # Default: 0
DM.PulayOnFile        F             # SystemLabel.P1, SystemLabel.P2
DM.Tolerance          1.d-4         # Default: 1.d-4
DM.UseSaveDM          .true.        # because of the bug
SCFMustConverge       .true.
NeglNonOverlapInt     F             # Default: F
#(5) Eigenvalue problem: order-N or diagonalization
SolutionMethod        Diagon        # or Transiesta
ElectronicTemperature 300.0 K       # Default: 300.0 K
#(6) Molecular dynamics and relaxations
#MD.TypeOfRun          CG            # Type of dynamics:
#MD.VariableCell       F
#MD.NumCGsteps         0           # 0 for single-point / 100 for gopt
#MD.MaxCGDispl         0.2 Bohr      # Default: 0.2 Bohr
#MD.MaxForceTol        0.02 eV/Ang   # Default: 0.04 eV/Ang
#MD.MaxStressTol       1.0 GPa       # Default: 1.0 GPa
# Geometry Constraints
#%block GeometryConstraints
#	position from 1 to 44
#%endblock GeometryConstraints
BandLinesScale   pi/a
%block BandLines
 1   0.00000000  0.00000000  0.00000000
50   0.00000000  0.07809418  0.00000000
50   0.04509075  0.07809242  0.00000000
20   0.00000000  0.00000000  0.00000000
%endblock BandLines
************************** End of input data file *****************************

reinit: -----------------------------------------------------------------------
reinit: System Name: GRP_doping
reinit: -----------------------------------------------------------------------
reinit: System Label: GRP_doping                                                  
reinit: -----------------------------------------------------------------------

initatom: Reading input for the pseudopotentials and atomic orbitals ----------
 Species number:            1  Label: B Atomic number:           5
 Species number:            2  Label: C Atomic number:           6
Ground state valence configuration:   2s02  2p01
Reading pseudopotential information in formatted form from B.psf

Valence configuration for pseudopotential generation:
2s( 2.00) rc: 1.74
2p( 1.00) rc: 1.74
3d( 0.00) rc: 1.74
4f( 0.00) rc: 1.74
Ground state valence configuration:   2s02  2p02
Reading pseudopotential information in formatted form from C.psf

Valence configuration for pseudopotential generation:
2s( 2.00) rc: 1.54
2p( 2.00) rc: 1.54
3d( 0.00) rc: 1.54
4f( 0.00) rc: 1.54
For B, standard SIESTA heuristics set lmxkb to 3
 (one more than the basis l, including polarization orbitals).
Use PS.lmax or PS.KBprojectors blocks to override.
For C, standard SIESTA heuristics set lmxkb to 3
 (one more than the basis l, including polarization orbitals).
Use PS.lmax or PS.KBprojectors blocks to override.

<basis_specs>
===============================================================================
B                    Z=   5    Mass=  10.810        Charge= 0.17977+309
Lmxo=1 Lmxkb= 3    BasisType=split      Semic=F
L=0  Nsemic=0  Cnfigmx=2
          n=1  nzeta=2  polorb=0
            splnorm:   0.15000    
               vcte:    0.0000    
               rinn:    0.0000    
                rcs:    0.0000      0.0000    
            lambdas:    1.0000      1.0000    
L=1  Nsemic=0  Cnfigmx=2
          n=1  nzeta=2  polorb=1
            splnorm:   0.15000    
               vcte:    0.0000    
               rinn:    0.0000    
                rcs:    0.0000      0.0000    
            lambdas:    1.0000      1.0000    
-------------------------------------------------------------------------------
L=0  Nkbl=1  erefs: 0.17977+309
L=1  Nkbl=1  erefs: 0.17977+309
L=2  Nkbl=1  erefs: 0.17977+309
L=3  Nkbl=1  erefs: 0.17977+309
===============================================================================
</basis_specs>

atom: Called for B                     (Z =   5)

read_vps: Pseudopotential generation method:
read_vps: ATM3      Troullier-Martins                       
Total valence charge:    3.00000

read_vps: Pseudopotential includes a core correction:
read_vps: Pseudo-core for xc-correction

xc_check: Exchange-correlation functional:
xc_check: GGA Perdew, Burke & Ernzerhof 1996
V l=0 = -2*Zval/r beyond r=  1.7165
V l=1 = -2*Zval/r beyond r=  1.7165
V l=2 = -2*Zval/r beyond r=  1.7165
V l=3 = -2*Zval/r beyond r=  1.6951
All V_l potentials equal beyond r=  1.7165
This should be close to max(r_c) in ps generation
All pots = -2*Zval/r beyond r=  1.7165

VLOCAL1: 99.0% of the norm of Vloc inside     14.733 Ry
VLOCAL1: 99.9% of the norm of Vloc inside     33.577 Ry
atom: Maximum radius for 4*pi*r*r*local-pseudopot. charge    2.04484
atom: Maximum radius for r*vlocal+2*Zval:    1.75994
GHOST: No ghost state for L =  0
GHOST: No ghost state for L =  1
GHOST: No ghost state for L =  2
GHOST: No ghost state for L =  3

KBgen: Kleinman-Bylander projectors: 
   l= 0   rc=  1.897051   el= -0.693730   Ekb=  4.595746   kbcos=  0.286105
   l= 1   rc=  1.920920   el= -0.265236   Ekb= -2.350715   kbcos= -0.315747
   l= 2   rc=  2.044840   el=  0.002055   Ekb= -0.690767   kbcos= -0.013822
   l= 3   rc=  2.149707   el=  0.003188   Ekb= -0.315358   kbcos= -0.002055

KBgen: Total number of  Kleinman-Bylander projectors:   16
atom: -------------------------------------------------------------------------

atom: SANKEY-TYPE ORBITALS:
atom: Selected multiple-zeta basis: split     

SPLIT: Orbitals with angular momentum L= 0

SPLIT: Basis orbitals for state 2s

SPLIT: PAO cut-off radius determined from an
SPLIT: energy shift=  0.007350 Ry

   izeta = 1
                 lambda =    1.000000
                     rc =    5.422032
                 energy =   -0.686029
                kinetic =    0.576707
    potential(screened) =   -1.262736
       potential(ionic) =   -3.271094

   izeta = 2
                 rmatch =    4.222573
              splitnorm =    0.150000
                 energy =   -0.602132
                kinetic =    0.858975
    potential(screened) =   -1.461107
       potential(ionic) =   -3.582536

SPLIT: Orbitals with angular momentum L= 1

SPLIT: Basis orbitals for state 2p

SPLIT: PAO cut-off radius determined from an
SPLIT: energy shift=  0.007350 Ry

   izeta = 1
                 lambda =    1.000000
                     rc =    6.790259
                 energy =   -0.258578
                kinetic =    1.481412
    potential(screened) =   -1.739989
       potential(ionic) =   -3.657461

   izeta = 2
                 rmatch =    4.608740
              splitnorm =    0.150000
                 energy =   -0.173757
                kinetic =    2.186690
    potential(screened) =   -2.360447
       potential(ionic) =   -4.464260

POLgen: Perturbative polarization orbital with L=  2

POLgen: Polarization orbital for state 2p

   izeta = 1
                     rc =    6.790259
                 energy =    0.684082
                kinetic =    1.471481
    potential(screened) =   -0.787399
       potential(ionic) =   -2.406985
atom: Total number of Sankey-type orbitals: 13

atm_pop: Valence configuration (for local Pseudopot. screening):
 2s( 2.00)                                                            
 2p( 1.00)                                                            
Vna: chval, zval:    3.00000   3.00000

Vna:  Cut-off radius for the neutral-atom potential:   6.790259
comcore: Pseudo-core radius Rcore=  2.122997

atom: _________________________________________________________________________

<basis_specs>
===============================================================================
C                    Z=   6    Mass=  12.010        Charge= 0.17977+309
Lmxo=1 Lmxkb= 3    BasisType=split      Semic=F
L=0  Nsemic=0  Cnfigmx=2
          n=1  nzeta=2  polorb=0
            splnorm:   0.15000    
               vcte:    0.0000    
               rinn:    0.0000    
                rcs:    0.0000      0.0000    
            lambdas:    1.0000      1.0000    
L=1  Nsemic=0  Cnfigmx=2
          n=1  nzeta=2  polorb=1
            splnorm:   0.15000    
               vcte:    0.0000    
               rinn:    0.0000    
                rcs:    0.0000      0.0000    
            lambdas:    1.0000      1.0000    
-------------------------------------------------------------------------------
L=0  Nkbl=1  erefs: 0.17977+309
L=1  Nkbl=1  erefs: 0.17977+309
L=2  Nkbl=1  erefs: 0.17977+309
L=3  Nkbl=1  erefs: 0.17977+309
===============================================================================
</basis_specs>

atom: Called for C                     (Z =   6)

read_vps: Pseudopotential generation method:
read_vps: ATM3      Troullier-Martins                       
Total valence charge:    4.00000

read_vps: Pseudopotential includes a core correction:
read_vps: Pseudo-core for xc-correction

xc_check: Exchange-correlation functional:
xc_check: GGA Perdew, Burke & Ernzerhof 1996
V l=0 = -2*Zval/r beyond r=  1.5227
V l=1 = -2*Zval/r beyond r=  1.5227
V l=2 = -2*Zval/r beyond r=  1.5227
V l=3 = -2*Zval/r beyond r=  1.5038
All V_l potentials equal beyond r=  1.5227
This should be close to max(r_c) in ps generation
All pots = -2*Zval/r beyond r=  1.5227

VLOCAL1: 99.0% of the norm of Vloc inside     18.722 Ry
VLOCAL1: 99.9% of the norm of Vloc inside     42.668 Ry
atom: Maximum radius for 4*pi*r*r*local-pseudopot. charge    1.83678
atom: Maximum radius for r*vlocal+2*Zval:    1.58088
GHOST: No ghost state for L =  0
GHOST: No ghost state for L =  1
GHOST: No ghost state for L =  2
GHOST: No ghost state for L =  3

KBgen: Kleinman-Bylander projectors: 
   l= 0   rc=  1.704034   el= -1.009801   Ekb=  5.335044   kbcos=  0.316824
   l= 1   rc=  1.704034   el= -0.388707   Ekb= -3.785862   kbcos= -0.366464
   l= 2   rc=  1.791422   el=  0.001971   Ekb= -0.970471   kbcos= -0.009212
   l= 3   rc=  1.859892   el=  0.003065   Ekb= -0.399525   kbcos= -0.001223

KBgen: Total number of  Kleinman-Bylander projectors:   16
atom: -------------------------------------------------------------------------

atom: SANKEY-TYPE ORBITALS:
atom: Selected multiple-zeta basis: split     

SPLIT: Orbitals with angular momentum L= 0

SPLIT: Basis orbitals for state 2s

SPLIT: PAO cut-off radius determined from an
SPLIT: energy shift=  0.007350 Ry

   izeta = 1
                 lambda =    1.000000
                     rc =    4.632753
                 energy =   -1.002270
                kinetic =    0.855760
    potential(screened) =   -1.858031
       potential(ionic) =   -5.417575

   izeta = 2
                 rmatch =    3.431921
              splitnorm =    0.150000
                 energy =   -0.867111
                kinetic =    1.300804
    potential(screened) =   -2.167915
       potential(ionic) =   -5.962684

SPLIT: Orbitals with angular momentum L= 1

SPLIT: Basis orbitals for state 2p

SPLIT: PAO cut-off radius determined from an
SPLIT: energy shift=  0.007350 Ry

   izeta = 1
                 lambda =    1.000000
                     rc =    5.658549
                 energy =   -0.381140
                kinetic =    2.399701
    potential(screened) =   -2.780841
       potential(ionic) =   -6.206085

   izeta = 2
                 rmatch =    3.653288
              splitnorm =    0.150000
                 energy =   -0.249149
                kinetic =    3.542762
    potential(screened) =   -3.791911
       potential(ionic) =   -7.581078

POLgen: Perturbative polarization orbital with L=  2

POLgen: Polarization orbital for state 2p

   izeta = 1
                     rc =    5.658549
                 energy =    1.109913
                kinetic =    2.304789
    potential(screened) =   -1.194876
       potential(ionic) =   -4.013592
atom: Total number of Sankey-type orbitals: 13

atm_pop: Valence configuration (for local Pseudopot. screening):
 2s( 2.00)                                                            
 2p( 2.00)                                                            
Vna: chval, zval:    4.00000   4.00000

Vna:  Cut-off radius for the neutral-atom potential:   5.658549
comcore: Pseudo-core radius Rcore=  1.791422

atom: _________________________________________________________________________

prinput: Basis input ----------------------------------------------------------

PAO.BasisType split     

%block ChemicalSpeciesLabel
    1    5 B                       # Species index, atomic number, species label
    2    6 C                       # Species index, atomic number, species label
%endblock ChemicalSpeciesLabel

%block PAO.Basis                 # Define Basis set
B                     2                    # Species label, number of l-shells
 n=2   0   2                         # n, l, Nzeta 
   5.422      4.223   
   1.000      1.000   
 n=2   1   2 P   1                   # n, l, Nzeta, Polarization, NzetaPol
   6.790      4.609   
   1.000      1.000   
C                     2                    # Species label, number of l-shells
 n=2   0   2                         # n, l, Nzeta 
   4.633      3.432   
   1.000      1.000   
 n=2   1   2 P   1                   # n, l, Nzeta, Polarization, NzetaPol
   5.659      3.653   
   1.000      1.000   
%endblock PAO.Basis

prinput: ----------------------------------------------------------------------

coor:   Atomic-coordinates input format  =     Fractional

siesta: Atomic coordinates (Bohr) and species
siesta:      6.95932  30.82560   0.00000  1        1
siesta:     -2.35420  17.38257   0.00000  1        2
siesta:     -0.02582  18.72698   0.00000  1        3
siesta:     -0.02582  21.41544   0.00000  1        4
siesta:      2.30256  22.75985   0.00000  1        5
siesta:      2.30256  25.44831   0.00000  1        6
siesta:     -4.68258  18.72698   0.00000  1        7
siesta:     -4.68258  21.41544   0.00000  1        8
siesta:     -2.35420  22.75985   0.00000  1        9
siesta:     -2.35420  25.44831   0.00000  1       10
siesta:      4.63094  26.79272   0.00000  1       11
siesta:      4.63094  29.48119   0.00000  1       12
siesta:     -0.02582  26.79272   0.00000  1       13
siesta:     -0.02582  29.48119   0.00000  1       14
siesta:      2.30256  30.82560   0.00000  1       15
siesta:      2.30256  33.51406   0.00000  1       16
siesta:     -0.02582   2.59549   0.00000  2       17
siesta:     -0.02582   5.28395   0.00000  2       18
siesta:     -2.35420  38.89134   0.00000  2       19
siesta:     -2.35420  41.57980   0.00000  2       20
siesta:      2.30256  38.89134   0.00000  2       21
siesta:      2.30256  41.57980   0.00000  2       22
siesta:      4.63094  34.85847   0.00000  2       23
siesta:      4.63094  37.54693   0.00000  2       24
siesta:      6.95932  33.51406   0.00000  2       25
siesta:      9.28770  26.79272   0.00000  2       26
siesta:      9.28770  29.48119   0.00000  2       27
siesta:     -4.68258  34.85847   0.00000  2       28
siesta:     -4.68258  37.54693   0.00000  2       29
siesta:      2.30256   6.62836   0.00000  2       30
siesta:      2.30256   9.31683   0.00000  2       31
siesta:      4.63094  10.66124   0.00000  2       32
siesta:      4.63094  13.34970   0.00000  2       33
siesta:      6.95932  14.69411   0.00000  2       34
siesta:      6.95932  17.38257   0.00000  2       35
siesta:      9.28770  18.72698   0.00000  2       36
siesta:      9.28770  21.41544   0.00000  2       37
siesta:     11.61608  22.75985   0.00000  2       38
siesta:     11.61608  25.44831   0.00000  2       39
siesta:     -2.35420   6.62836   0.00000  2       40
siesta:     -2.35420   9.31683   0.00000  2       41
siesta:     -0.02582  10.66124   0.00000  2       42
siesta:     -0.02582  13.34970   0.00000  2       43
siesta:      2.30256  14.69411   0.00000  2       44
siesta:      2.30256  17.38257   0.00000  2       45
siesta:      4.63094  18.72698   0.00000  2       46
siesta:      4.63094  21.41544   0.00000  2       47
siesta:      6.95932  22.75985   0.00000  2       48
siesta:      6.95932  25.44831   0.00000  2       49
siesta:     -4.68258  10.66124   0.00000  2       50
siesta:     -4.68258  13.34970   0.00000  2       51
siesta:     -2.35420  14.69411   0.00000  2       52
siesta:     -7.01096  14.69411   0.00000  2       53
siesta:     -7.01096  17.38257   0.00000  2       54
siesta:     -9.33934  18.72698   0.00000  2       55
siesta:     -9.33934  21.41544   0.00000  2       56
siesta:     -7.01096  22.75985   0.00000  2       57
siesta:     -7.01096  25.44831   0.00000  2       58
siesta:    -11.66772  22.75985   0.00000  2       59
siesta:    -11.66772  25.44831   0.00000  2       60
siesta:     -9.33934  26.79272   0.00000  2       61
siesta:     -9.33934  29.48119   0.00000  2       62
siesta:     -4.68258  26.79272   0.00000  2       63
siesta:     -4.68258  29.48119   0.00000  2       64
siesta:     -2.35420  30.82560   0.00000  2       65
siesta:     -2.35420  33.51406   0.00000  2       66
siesta:     -7.01096  30.82560   0.00000  2       67
siesta:     -7.01096  33.51406   0.00000  2       68
siesta:     -0.02582  34.85847   0.00000  2       69
siesta:     -0.02582  37.54693   0.00000  2       70
siesta:     -0.02582  42.92421   0.00000  2       71
siesta:     -0.02582  45.61267   0.00000  2       72

siesta: System type = slab      

initatomlists: Number of atoms, orbitals, and projectors:     72   936  1152

siesta: ******************** Simulation parameters ****************************
siesta:
siesta: The following are some of the parameters of the simulation.
siesta: A complete list of the parameters used, including default values,
siesta: can be found in file out.fdf
siesta:
redata: Non-Collinear-spin run           =     F
redata: SpinPolarized (Up/Down) run      =     F
redata: Number of spin components        =     1
redata: Long output                      =     F
redata: Number of Atomic Species         =        2
redata: Charge density info will appear in .RHO file
redata: Write Mulliken Pop.              =     NO
redata: Mesh Cutoff                      =   200.0000  Ry
redata: Net charge of the system         =     0.0000 |e|
redata: Max. number of SCF Iter          =      500
redata: SCF convergence failure will abort job
redata: Performing Pulay mixing using    =    10 iterations
redata: Mix DM in first SCF step ?       =     F
redata: Write Pulay info on disk?        =     F
redata: Discard 1st Pulay DM after  kick =     F
redata: New DM Mixing Weight             =     0.0500
redata: New DM Occupancy tolerance       = 0.000000000001
redata: No kicks to SCF
redata: DM Mixing Weight for Kicks       =     0.5000
redata: DM Tolerance for SCF             =     0.000100
redata: Require Energy convergence for SCF =     F
redata: DM Energy tolerance for SCF      =     0.000100 eV
redata: Require Harris convergence for SCF =     F
redata: DM Harris energy tolerance for SCF =     0.000100 eV
redata: Using Saved Data (generic)   =     F
redata: Use continuation files for DM    =     T
redata: Neglect nonoverlap interactions  =     F
redata: Method of Calculation            =     Diagonalization
redata: Divide and Conquer               =     T
redata: Electronic Temperature           =     0.0019  Ry
redata: Fix the spin of the system       =     F
redata: Dynamics option                  =     Verlet MD run
redata: Initial MD time step             =        1
redata:   Final MD time step             =        1
redata: Length of MD time step           =     1.0000  fs
redata: Initial Temperature of MD run    =     0.0000  K
redata: Perform a MD quench              =     F
redata: ***********************************************************************
Total number of electrons:   272.000000
Total ionic charge:   272.000000

* ProcessorY, Blocksize:    2  24

k-point displ. along   1 input, could be:     0.50    0.00
k-point displ. along   2 input, could be:     0.50    0.00
 Kpoints in:          231 . Kpoints trimmed:          231

siesta: k-grid: Number of k-points =   231
siesta: k-grid: Cutoff (effective) =     5.000 Ang
siesta: k-grid: Supercell and displacements
siesta: k-grid:   21   0   0      0.500
siesta: k-grid:    0  21   0      0.500
siesta: k-grid:    0   0   1      0.000
Naive supercell factors:     2    2    2

superc: Internal auxiliary supercell:     2 x     2 x     2  =       8
superc: Number of atoms, orbitals, and projectors:    576   7488   9216

* Maximum dynamic memory allocated =     4 MB

siesta:                 ==============================
                            Begin MD step =      1
                        ==============================

superc: Internal auxiliary supercell:     2 x     2 x     2  =       8
superc: Number of atoms, orbitals, and projectors:    576   7488   9216

outcell: Unit cell vectors (Ang):
       12.804619    7.392750    0.000000
        0.000000   14.785500    0.000000
        0.000000    0.000000   10.000000

outcell: Cell vector modules (Ang)   :   14.785500   14.785500   10.000000
outcell: Cell angles (23,13,12) (deg):     90.0000     90.0000     60.0000
outcell: Cell volume (Ang**3)        :   1893.2269
New_DM. Step:     1
Initializing Density Matrix...

InitMesh: MESH =   120 x   120 x    90 =     1296000
InitMesh: Mesh cutoff (required, used) =   200.000   223.865 Ry

* Maximum dynamic memory allocated =   214 MB

stepf: Fermi-Dirac step function

siesta: Program's energy decomposition (eV):
siesta: Ebs     =     -5595.193481
siesta: Eions   =     16354.103692
siesta: Ena     =      4326.001088
siesta: Ekin    =      5534.369168
siesta: Enl     =       765.685721
siesta: DEna    =        -0.000010
siesta: DUscf   =         0.000000
siesta: DUext   =         0.000000
siesta: Exc     =     -4196.295598
siesta: eta*DQ  =         0.000000
siesta: Emadel  =         0.000000
siesta: Emeta   =         0.000000
siesta: Emolmec =         0.000000
siesta: Ekinion =         0.000000
siesta: Eharris =     -9636.994979
siesta: Etot    =     -9924.343323
siesta: FreeEng =     -9924.343323

siesta: iscf   Eharris(eV)      E_KS(eV)   FreeEng(eV)   dDmax  Ef(eV)
siesta:    1    -9636.9950    -9924.3433    -9924.3433  6.7881 -8.3438
timer: Routine,Calls,Time,% = IterSCF        1    3452.862  99.68
elaps: Routine,Calls,Wall,% = IterSCF        1     432.452  99.68
siesta:    2   -14495.8302    -8902.4020    -8902.4878 18.8666 -3.3585
siesta:    3    -9580.9477    -9781.8371    -9781.8378  3.6179 -6.7570
siesta:    4    -9560.1321    -9638.4655    -9638.4735  1.3285 -5.4164
siesta:    5    -9511.3439    -9578.0645    -9578.1138  0.8986 -5.6525
siesta:    6    -9494.8163    -9518.7645    -9518.7966  0.7980 -5.4222
siesta:    7    -9491.8158    -9513.0588    -9513.0914  0.7968 -5.4095
siesta:    8    -9487.0953    -9490.2864    -9490.3104  0.6562 -5.3102
siesta:    9    -9486.6916    -9481.8177    -9481.8704  0.5919 -5.2735
siesta:   10    -9485.7946    -9471.7792    -9471.8406  0.3912 -5.1951
siesta:   11    -9485.4506    -9461.8842    -9461.9377  0.1868 -5.1576
siesta:   12    -9485.7893    -9456.9480    -9456.9872  0.1921 -5.1142
siesta:   13    -9485.0082    -9457.5779    -9457.6175  0.1568 -5.1140
siesta:   14    -9484.6239    -9463.4706    -9463.5021  0.1168 -5.1500
siesta:   15    -9484.2030    -9467.1105    -9467.1502  0.0903 -5.1595
siesta:   16    -9484.1438    -9472.1001    -9472.1466  0.0675 -5.1829
siesta:   17    -9484.0975    -9478.4522    -9478.4973  0.0549 -5.1965
siesta:   18    -9484.0853    -9480.9816    -9481.0310  0.0612 -5.2019
siesta:   19    -9484.0625    -9484.2833    -9484.3295  0.0375 -5.1974
siesta:   20    -9484.0630    -9484.4091    -9484.4572  0.0255 -5.1843
siesta:   21    -9484.0534    -9484.5838    -9484.6347  0.0134 -5.1765
siesta:   22    -9484.0515    -9484.5866    -9484.6376  0.0161 -5.1721
siesta:   23    -9484.0506    -9484.5867    -9484.6375  0.0118 -5.1694
siesta:   24    -9484.0497    -9484.6474    -9484.6978  0.0073 -5.1684
siesta:   25    -9484.0497    -9484.5604    -9484.6114  0.0053 -5.1687
siesta:   26    -9484.0496    -9484.4822    -9484.5330  0.0029 -5.1703
siesta:   27    -9484.0496    -9484.3618    -9484.4127  0.0012 -5.1711
siesta:   28    -9484.0496    -9484.3210    -9484.3718  0.0011 -5.1715
siesta:   29    -9484.0496    -9484.2933    -9484.3441  0.0007 -5.1716
siesta:   30    -9484.0496    -9484.2478    -9484.2986  0.0007 -5.1717
siesta:   31    -9484.0495    -9484.1587    -9484.2096  0.0006 -5.1717
siesta:   32    -9484.0495    -9484.0829    -9484.1337  0.0003 -5.1715
siesta:   33    -9484.0495    -9484.0744    -9484.1252  0.0002 -5.1715
siesta:   34    -9484.0495    -9484.0643    -9484.1151  0.0002 -5.1714
siesta:   35    -9484.0495    -9484.0611    -9484.1120  0.0001 -5.1715
siesta:   36    -9484.0495    -9484.0560    -9484.1068  0.0001 -5.1715

siesta: E_KS(eV) =            -9484.0537

siesta: E_KS - E_eggbox =     -9484.0537

siesta: Atomic forces (eV/Ang):
----------------------------------------
   Tot   -0.117462   -0.026899    0.000000
----------------------------------------
   Max  557.448039
   Res  148.785337    sqrt( Sum f_i^2 / 3N )
----------------------------------------
   Max  557.448039    constrained

Stress-tensor-Voigt (kbar):     -814.91    -2690.01       -0.60       -1.15        0.00        0.00
(Free)E + p*V (eV/cell)    -8103.3446
Target enthalpy (eV/cell)    -9484.1045

siesta: Stress tensor (static) (eV/Ang**3):
        -0.508619   -0.000720    0.000000
        -0.000719   -1.678955    0.000000
         0.000000    0.000000   -0.000372

siesta: Pressure (static):       1168.50510889  kBar

siesta: Stress tensor (total) (eV/Ang**3):
        -0.508619   -0.000720    0.000000
        -0.000719   -1.678955    0.000000
         0.000000    0.000000   -0.000372

siesta: Pressure (total):       1168.50510889  kBar

siesta: Temp_ion =       0.000 K

* Maximum dynamic memory allocated =   230 MB
Computing bands...

siesta: Program's energy decomposition (eV):
siesta: Ebs     =     -4250.844460
siesta: Eions   =     16354.103692
siesta: Ena     =      4326.001088
siesta: Ekin    =      8426.322608
siesta: Enl     =      -839.068809
siesta: DEna    =      -781.892464
siesta: DUscf   =       104.160281
siesta: DUext   =         0.000000
siesta: Exc     =     -4365.472712
siesta: eta*DQ  =         0.000000
siesta: Emadel  =         0.000000
siesta: Emeta   =         0.000000
siesta: Emolmec =         0.000000
siesta: Ekinion =         0.000000
siesta: Eharris =     -9484.049539
siesta: Etot    =     -9484.053700
siesta: FreeEng =     -9484.104541

siesta: Final energy (eV):
siesta:  Band Struct. =   -4250.844460
siesta:       Kinetic =    8426.322608
siesta:       Hartree =   27552.201334
siesta:    Ext. field =       0.000000
siesta:   Exch.-corr. =   -4365.472712
siesta:  Ion-electron =  -63235.599390
siesta:       Ion-ion =   22138.494460
siesta:       Ekinion =       0.000000
siesta:         Total =   -9484.053700

siesta: Atomic forces (eV/Ang):
siesta:      1    8.666482    3.618900    0.000000
siesta:      2  -15.740273   -3.017569    0.000000
siesta:      3    0.838057  408.568246    0.000000
siesta:      4   -0.875772    0.276223    0.000000
siesta:      5    5.560631   -2.993722    0.000000
siesta:      6   -2.529497    2.823612    0.000000
siesta:      7   -1.227801   -3.032580    0.000000
siesta:      8   -4.641868    3.382339    0.000000
siesta:      9    2.673802   -2.322829    0.000000
siesta:     10   -5.689161    2.932704    0.000000
siesta:     11    5.170066   -3.507561    0.000000
siesta:     12   -2.355121    1.277464    0.000000
siesta:     13    0.843064   -0.388116    0.000000
siesta:     14   -0.021728 -407.903420    0.000000
siesta:     15   14.756139    0.942549    0.000000
siesta:     16   21.096750 -401.692349    0.000000
siesta:     17   -3.354756  404.110168    0.000000
siesta:     18    4.938016 -126.594032    0.000000
siesta:     19    2.447146  128.083952    0.000000
siesta:     20  -19.453880 -552.931011    0.000000
siesta:     21   -0.774345  127.051492    0.000000
siesta:     22   17.525006 -549.534121    0.000000
siesta:     23   26.024701    1.008394    0.000000
siesta:     24   29.100075 -551.120463    0.000000
siesta:     25   -3.979448    4.283423    0.000000
siesta:     26    3.289486    2.134560    0.000000
siesta:     27    0.499572   -3.081064    0.000000
siesta:     28  -26.121859    3.998870    0.000000
siesta:     29  -31.625936 -548.884345    0.000000
siesta:     30   18.476557  408.814996    0.000000
siesta:     31   -0.501329 -124.524838    0.000000
siesta:     32   34.399716  551.854864    0.000000
siesta:     33   27.205425   -5.601510    0.000000
siesta:     34   -2.356005   -1.489863    0.000000
siesta:     35    2.604138   -0.570902    0.000000
siesta:     36   -1.460162   -0.081727    0.000000
siesta:     37    2.721572   -2.014671    0.000000
siesta:     38   -0.091150    7.431495    0.000000
siesta:     39   -0.005370   -7.398401    0.000000
siesta:     40  -19.195339  549.706339    0.000000
siesta:     41    1.822862 -128.212979    0.000000
siesta:     42   -3.651910  549.820009    0.000000
siesta:     43   -0.773642 -127.373325    0.000000
siesta:     44   24.077403  556.688522    0.000000
siesta:     45   21.977644   -2.970758    0.000000
siesta:     46   -0.602647    2.070099    0.000000
siesta:     47    2.784107   -2.160042    0.000000
siesta:     48    0.383032    0.430069    0.000000
siesta:     49    2.037008   -2.615972    0.000000
siesta:     50  -34.120259  550.243860    0.000000
siesta:     51  -26.397784   -4.817244    0.000000
siesta:     52  -22.241075  555.253430    0.000000
siesta:     53    2.997861   -1.423651    0.000000
siesta:     54   -7.415615   -1.973397    0.000000
siesta:     55    1.674640   -0.525319    0.000000
siesta:     56   -2.515690   -1.417947    0.000000
siesta:     57   -2.221504    2.217098    0.000000
siesta:     58   -0.382396   -0.437244    0.000000
siesta:     59    0.118546    6.752052    0.000000
siesta:     60    0.319472   -6.878128    0.000000
siesta:     61   -2.830579    1.627322    0.000000
siesta:     62    1.319585    0.576414    0.000000
siesta:     63   -2.835360    1.997673    0.000000
siesta:     64    0.854208   -2.070433    0.000000
siesta:     65  -22.531545    3.438803    0.000000
siesta:     66  -24.787744 -557.448039    0.000000
siesta:     67   -2.489495    0.410297    0.000000
siesta:     68    2.659763    2.129028    0.000000
siesta:     69    6.172193  117.678298    0.000000
siesta:     70    0.506830 -547.044772    0.000000
siesta:     71   -3.455350  127.377212    0.000000
siesta:     72    2.594376 -404.983330    0.000000
siesta: ----------------------------------------
siesta:    Tot   -0.117462   -0.026899    0.000000

siesta: Stress tensor (static) (eV/Ang**3):
siesta:    -0.508619   -0.000720    0.000000
siesta:    -0.000719   -1.678955    0.000000
siesta:     0.000000    0.000000   -0.000372

siesta: Cell volume =       1893.226884 Ang**3

siesta: Pressure (static):
siesta:                Solid            Molecule  Units
siesta:           0.00794318          0.11398708  Ry/Bohr**3
siesta:           0.72931564         10.46590625  eV/Ang**3
siesta:        1168.50510889      16768.41169374  kBar
(Free)E+ p_basis*V_orbitals  =       -9448.311669
(Free)Eharris+ p_basis*V_orbitals  =       -9448.305201

siesta: Electric dipole (a.u.)  =    0.000000    0.000000    0.000000
siesta: Electric dipole (Debye) =    0.000000    0.000000    0.000000

* Maximum dynamic memory allocated : Node    0 =   230 MB
* Maximum dynamic memory allocated : Node    1 =    80 MB
* Maximum dynamic memory allocated : Node    2 =    83 MB
* Maximum dynamic memory allocated : Node    3 =   218 MB
* Maximum dynamic memory allocated : Node    4 =   226 MB
* Maximum dynamic memory allocated : Node    5 =    82 MB
* Maximum dynamic memory allocated : Node    6 =    85 MB
* Maximum dynamic memory allocated : Node    7 =   209 MB

* Maximum memory occured during matrixMtoO                    

timer: CPU execution times:
timer:  Routine       Calls   Time/call    Tot.time        %
timer:  siesta            1  123366.078  123366.078   100.00
timer:  Setup             1       2.720       2.720     0.00
timer:  bands             3     244.080     732.241     0.59
timer:  writewave         1       0.019       0.019     0.00
timer:  KSV_init          1       0.004       0.004     0.00
timer:  IterMD            1  122625.890  122625.890    99.40
timer:  hsparse           1       0.512       0.512     0.00
timer:  overlap           1       7.190       7.190     0.01
timer:  IterSCF          36    3400.822  122429.599    99.24
timer:  kinefsm           2       3.747       7.493     0.01
timer:  nlefsm            2      19.520      39.040     0.03
timer:  DHSCF            37      99.832    3693.781     2.99
timer:  DHSCF1            1       0.993       0.993     0.00
timer:  DHSCF2            1      41.103      41.103     0.03
timer:  REORD           298       0.005       1.539     0.00
timer:  POISON           38       0.883      33.571     0.03
timer:  DHSCF3           37      97.604    3611.331     2.93
timer:  rhoofd           37      22.854     845.589     0.69
timer:  cellXC           37       3.233     119.609     0.10
timer:  vmat             37      45.778    1693.798     1.37
timer:  MolMec            2       0.000       0.000     0.00
timer:  diagon           36    3300.418  118815.061    96.31
timer:  c-eigval       8437       6.030   50878.132    41.24
timer:  c-buildHS      8437       0.051     431.284     0.35
timer:  cdiag         16753       6.172  103406.285    83.82
timer:  cdiag1        16753       0.387    6491.060     5.26
timer:  cdiag2        16753       1.767   29607.635    24.00
timer:  cdiag3        16753       3.733   62533.541    50.69
timer:  cdiag4        16753       0.159    2658.163     2.15
timer:  c-eigvec       8316       6.412   53325.860    43.23
timer:  c-buildD       8316       1.840   15300.850    12.40
timer:  DHSCF4            1      39.623      39.623     0.03
timer:  dfscf             1      36.842      36.842     0.03
timer:  overfsm           1       0.454       0.454     0.00
timer:  optical           1       4.568       4.568     0.00
  

elaps: ELAPSED times:
elaps:  Routine       Calls   Time/call    Tot.time        %
elaps:  siesta            1   15450.436   15450.436   100.00
elaps:  Setup             1       0.341       0.341     0.00
elaps:  bands             3      30.585      91.756     0.59
elaps:  writewave         1       0.002       0.002     0.00
elaps:  KSV_init          1       0.000       0.000     0.00
elaps:  IterMD            1   15357.734   15357.734    99.40
elaps:  hsparse           1       0.067       0.067     0.00
elaps:  overlap           1       0.912       0.912     0.01
elaps:  IterSCF          36     425.921   15333.149    99.24
elaps:  kinefsm           2       0.475       0.950     0.01
elaps:  nlefsm            2       2.530       5.060     0.03
elaps:  DHSCF            37      12.627     467.205     3.02
elaps:  DHSCF1            1       0.126       0.126     0.00
elaps:  DHSCF2            1       5.147       5.147     0.03
elaps:  REORD           298       0.001       0.198     0.00
elaps:  POISON           38       0.111       4.220     0.03
elaps:  DHSCF3           37      12.225     452.312     2.93
elaps:  rhoofd           37       5.952     220.232     1.43
elaps:  cellXC           37       0.405      14.968     0.10
elaps:  vmat             37       5.734     212.149     1.37
elaps:  MolMec            2       0.000       0.000     0.00
elaps:  diagon           36     413.354   14880.756    96.31
elaps:  c-eigval       8437       0.755    6371.868    41.24
elaps:  c-buildHS      8437       0.007      57.714     0.37
elaps:  cdiag         16753       0.768   12862.484    83.25
elaps:  cdiag1        16753       0.049     819.494     5.30
elaps:  cdiag2        16753       0.221    3708.803    24.00
elaps:  cdiag3        16753       0.468    7842.057    50.76
elaps:  cdiag4        16753       0.019     321.248     2.08
elaps:  c-eigvec       8316       0.793    6597.512    42.70
elaps:  c-buildD       8316       0.240    1995.710    12.92
elaps:  DHSCF4            1       9.536       9.536     0.06
elaps:  dfscf             1       9.002       9.002     0.06
elaps:  overfsm           1       0.059       0.059     0.00
elaps:  optical           1       0.000       0.000     0.00
  
>> End of run:   2-MAY-2016   6:51:32
