Siesta Version:                                        siesta-3.2-pl-3
Architecture  : x86_64-unknown-linux-gnu--unknown
Compiler flags: mpiifort -g -O2 -fPIC -xSSE4.1 -fp-model source -shared-intel 
PARALLEL version

* Running on   12 nodes in parallel
>> Start of run:   8-MAY-2016   5:12:09

                           ***********************       
                           *  WELCOME TO SIESTA  *       
                           ***********************       

reinit: Reading from standard input
************************** Dump of input data file ****************************
#(1) General system descriptors
SystemName            GRP_doping    # Descriptive name of the system
SystemLabel           GRP_doping    # Short name for naming files
%include STRUCT.fdf
%include KPT.fdf
%include BASIS.fdf
#%include TS.fdf # for transiesta calculation
#(4) DFT, Grid, SCF
XC.functional         GGA           # LDA or GGA (default = LDA)
XC.authors            PBE           # CA (Ceperley-Aldr) = PZ
                                    #    (Perdew-Zunger) - LDA - Default
                                    # PW92 (Perdew-Wang-92) - LDA
                                    # PBE (Perdew-Burke-Ernzerhof) - GGA
MeshCutoff            200.000000    Ry      # Default: 50.0 Ry ~ 0.444 Bohr
                                    #         100.0 Ry ~ 0.314 Bohr
MaxSCFIterations      500           # Default: 50
DM.MixingWeight       0.05          # Default: 0.25
DM.NumberPulay        10            # Default: 0
DM.PulayOnFile        F             # SystemLabel.P1, SystemLabel.P2
DM.Tolerance          1.d-4         # Default: 1.d-4
DM.UseSaveDM          .true.        # because of the bug
SCFMustConverge       .true.
NeglNonOverlapInt     F             # Default: F
#(5) Eigenvalue problem: order-N or diagonalization
SolutionMethod        Diagon        # or Transiesta
ElectronicTemperature 300.0 K       # Default: 300.0 K
#(6) Molecular dynamics and relaxations
#MD.TypeOfRun          CG            # Type of dynamics:
#MD.VariableCell       F
#MD.NumCGsteps         0           # 0 for single-point / 100 for gopt
#MD.MaxCGDispl         0.2 Bohr      # Default: 0.2 Bohr
#MD.MaxForceTol        0.02 eV/Ang   # Default: 0.04 eV/Ang
#MD.MaxStressTol       1.0 GPa       # Default: 1.0 GPa
# Geometry Constraints
#%block GeometryConstraints
#	position from 1 to 44
#%endblock GeometryConstraints
BandLinesScale   pi/a
%block BandLines
 1   0.00000000  0.00000000  0.00000000
50   0.00000000  0.07809418  0.00000000
50   0.04509075  0.07809242  0.00000000
20   0.00000000  0.00000000  0.00000000
%endblock BandLines
************************** End of input data file *****************************

reinit: -----------------------------------------------------------------------
reinit: System Name: GRP_doping
reinit: -----------------------------------------------------------------------
reinit: System Label: GRP_doping                                                  
reinit: -----------------------------------------------------------------------

initatom: Reading input for the pseudopotentials and atomic orbitals ----------
 Species number:            1  Label: N Atomic number:           7
 Species number:            2  Label: C Atomic number:           6
Ground state valence configuration:   2s02  2p03
Reading pseudopotential information in formatted form from N.psf

Valence configuration for pseudopotential generation:
2s( 2.00) rc: 1.48
2p( 3.00) rc: 1.48
3d( 0.00) rc: 1.48
4f( 0.00) rc: 1.48
Ground state valence configuration:   2s02  2p02
Reading pseudopotential information in formatted form from C.psf

Valence configuration for pseudopotential generation:
2s( 2.00) rc: 1.54
2p( 2.00) rc: 1.54
3d( 0.00) rc: 1.54
4f( 0.00) rc: 1.54
For N, standard SIESTA heuristics set lmxkb to 3
 (one more than the basis l, including polarization orbitals).
Use PS.lmax or PS.KBprojectors blocks to override.
For C, standard SIESTA heuristics set lmxkb to 3
 (one more than the basis l, including polarization orbitals).
Use PS.lmax or PS.KBprojectors blocks to override.

<basis_specs>
===============================================================================
N                    Z=   7    Mass=  14.010        Charge= 0.17977+309
Lmxo=1 Lmxkb= 3    BasisType=split      Semic=F
L=0  Nsemic=0  Cnfigmx=2
          n=1  nzeta=2  polorb=0
            splnorm:   0.15000    
               vcte:    0.0000    
               rinn:    0.0000    
                rcs:    0.0000      0.0000    
            lambdas:    1.0000      1.0000    
L=1  Nsemic=0  Cnfigmx=2
          n=1  nzeta=2  polorb=1
            splnorm:   0.15000    
               vcte:    0.0000    
               rinn:    0.0000    
                rcs:    0.0000      0.0000    
            lambdas:    1.0000      1.0000    
-------------------------------------------------------------------------------
L=0  Nkbl=1  erefs: 0.17977+309
L=1  Nkbl=1  erefs: 0.17977+309
L=2  Nkbl=1  erefs: 0.17977+309
L=3  Nkbl=1  erefs: 0.17977+309
===============================================================================
</basis_specs>

atom: Called for N                     (Z =   7)

read_vps: Pseudopotential generation method:
read_vps: ATM3      Troullier-Martins                       
Total valence charge:    5.00000

read_vps: Pseudopotential includes a core correction:
read_vps: Pseudo-core for xc-correction

xc_check: Exchange-correlation functional:
xc_check: GGA Perdew, Burke & Ernzerhof 1996
V l=0 = -2*Zval/r beyond r=  1.4606
V l=1 = -2*Zval/r beyond r=  1.4606
V l=2 = -2*Zval/r beyond r=  1.4606
V l=3 = -2*Zval/r beyond r=  1.4606
All V_l potentials equal beyond r=  1.4606
This should be close to max(r_c) in ps generation
All pots = -2*Zval/r beyond r=  1.4606

VLOCAL1: 99.0% of the norm of Vloc inside     20.347 Ry
VLOCAL1: 99.9% of the norm of Vloc inside     46.372 Ry
atom: Maximum radius for 4*pi*r*r*local-pseudopot. charge    1.76189
atom: Maximum radius for r*vlocal+2*Zval:    1.53550
GHOST: No ghost state for L =  0
GHOST: No ghost state for L =  1
GHOST: No ghost state for L =  2
GHOST: No ghost state for L =  3

KBgen: Kleinman-Bylander projectors: 
   l= 0   rc=  1.634559   el= -1.363963   Ekb=  5.296955   kbcos=  0.335621
   l= 1   rc=  1.614250   el= -0.521451   Ekb= -5.259161   kbcos= -0.433408
   l= 2   rc=  1.718383   el=  0.001991   Ekb= -1.271464   kbcos= -0.007566
   l= 3   rc=  1.761893   el=  0.003093   Ekb= -0.494769   kbcos= -0.001015

KBgen: Total number of  Kleinman-Bylander projectors:   16
atom: -------------------------------------------------------------------------

atom: SANKEY-TYPE ORBITALS:
atom: Selected multiple-zeta basis: split     

SPLIT: Orbitals with angular momentum L= 0

SPLIT: Basis orbitals for state 2s

SPLIT: PAO cut-off radius determined from an
SPLIT: energy shift=  0.007350 Ry

   izeta = 1
                 lambda =    1.000000
                     rc =    4.071465
                 energy =   -1.356470
                kinetic =    1.176977
    potential(screened) =   -2.533447
       potential(ionic) =   -8.057990

   izeta = 2
                 rmatch =    2.905100
              splitnorm =    0.150000
                 energy =   -1.158343
                kinetic =    1.813009
    potential(screened) =   -2.971352
       potential(ionic) =   -8.901931

SPLIT: Orbitals with angular momentum L= 1

SPLIT: Basis orbitals for state 2p

SPLIT: PAO cut-off radius determined from an
SPLIT: energy shift=  0.007350 Ry

   izeta = 1
                 lambda =    1.000000
                     rc =    4.972977
                 energy =   -0.513884
                kinetic =    3.441732
    potential(screened) =   -3.955616
       potential(ionic) =   -9.287901

   izeta = 2
                 rmatch =    3.054066
              splitnorm =    0.150000
                 energy =   -0.318226
                kinetic =    5.125348
    potential(screened) =   -5.443573
       potential(ionic) =  -11.380999

POLgen: Perturbative polarization orbital with L=  2

POLgen: Polarization orbital for state 2p

   izeta = 1
                     rc =    4.972977
                 energy =    1.607437
                kinetic =    3.268125
    potential(screened) =   -1.660688
       potential(ionic) =   -5.973652
atom: Total number of Sankey-type orbitals: 13

atm_pop: Valence configuration (for local Pseudopot. screening):
 2s( 2.00)                                                            
 2p( 3.00)                                                            
Vna: chval, zval:    5.00000   5.00000

Vna:  Cut-off radius for the neutral-atom potential:   4.972977
comcore: Pseudo-core radius Rcore=  1.554824

atom: _________________________________________________________________________

<basis_specs>
===============================================================================
C                    Z=   6    Mass=  12.010        Charge= 0.17977+309
Lmxo=1 Lmxkb= 3    BasisType=split      Semic=F
L=0  Nsemic=0  Cnfigmx=2
          n=1  nzeta=2  polorb=0
            splnorm:   0.15000    
               vcte:    0.0000    
               rinn:    0.0000    
                rcs:    0.0000      0.0000    
            lambdas:    1.0000      1.0000    
L=1  Nsemic=0  Cnfigmx=2
          n=1  nzeta=2  polorb=1
            splnorm:   0.15000    
               vcte:    0.0000    
               rinn:    0.0000    
                rcs:    0.0000      0.0000    
            lambdas:    1.0000      1.0000    
-------------------------------------------------------------------------------
L=0  Nkbl=1  erefs: 0.17977+309
L=1  Nkbl=1  erefs: 0.17977+309
L=2  Nkbl=1  erefs: 0.17977+309
L=3  Nkbl=1  erefs: 0.17977+309
===============================================================================
</basis_specs>

atom: Called for C                     (Z =   6)

read_vps: Pseudopotential generation method:
read_vps: ATM3      Troullier-Martins                       
Total valence charge:    4.00000

read_vps: Pseudopotential includes a core correction:
read_vps: Pseudo-core for xc-correction

xc_check: Exchange-correlation functional:
xc_check: GGA Perdew, Burke & Ernzerhof 1996
V l=0 = -2*Zval/r beyond r=  1.5227
V l=1 = -2*Zval/r beyond r=  1.5227
V l=2 = -2*Zval/r beyond r=  1.5227
V l=3 = -2*Zval/r beyond r=  1.5038
All V_l potentials equal beyond r=  1.5227
This should be close to max(r_c) in ps generation
All pots = -2*Zval/r beyond r=  1.5227

VLOCAL1: 99.0% of the norm of Vloc inside     18.722 Ry
VLOCAL1: 99.9% of the norm of Vloc inside     42.668 Ry
atom: Maximum radius for 4*pi*r*r*local-pseudopot. charge    1.83678
atom: Maximum radius for r*vlocal+2*Zval:    1.58088
GHOST: No ghost state for L =  0
GHOST: No ghost state for L =  1
GHOST: No ghost state for L =  2
GHOST: No ghost state for L =  3

KBgen: Kleinman-Bylander projectors: 
   l= 0   rc=  1.704034   el= -1.009801   Ekb=  5.335044   kbcos=  0.316824
   l= 1   rc=  1.704034   el= -0.388707   Ekb= -3.785862   kbcos= -0.366464
   l= 2   rc=  1.791422   el=  0.001971   Ekb= -0.970471   kbcos= -0.009212
   l= 3   rc=  1.859892   el=  0.003065   Ekb= -0.399525   kbcos= -0.001223

KBgen: Total number of  Kleinman-Bylander projectors:   16
atom: -------------------------------------------------------------------------

atom: SANKEY-TYPE ORBITALS:
atom: Selected multiple-zeta basis: split     

SPLIT: Orbitals with angular momentum L= 0

SPLIT: Basis orbitals for state 2s

SPLIT: PAO cut-off radius determined from an
SPLIT: energy shift=  0.007350 Ry

   izeta = 1
                 lambda =    1.000000
                     rc =    4.632753
                 energy =   -1.002270
                kinetic =    0.855760
    potential(screened) =   -1.858031
       potential(ionic) =   -5.417575

   izeta = 2
                 rmatch =    3.431921
              splitnorm =    0.150000
                 energy =   -0.867111
                kinetic =    1.300804
    potential(screened) =   -2.167915
       potential(ionic) =   -5.962684

SPLIT: Orbitals with angular momentum L= 1

SPLIT: Basis orbitals for state 2p

SPLIT: PAO cut-off radius determined from an
SPLIT: energy shift=  0.007350 Ry

   izeta = 1
                 lambda =    1.000000
                     rc =    5.658549
                 energy =   -0.381140
                kinetic =    2.399701
    potential(screened) =   -2.780841
       potential(ionic) =   -6.206085

   izeta = 2
                 rmatch =    3.653288
              splitnorm =    0.150000
                 energy =   -0.249149
                kinetic =    3.542762
    potential(screened) =   -3.791911
       potential(ionic) =   -7.581078

POLgen: Perturbative polarization orbital with L=  2

POLgen: Polarization orbital for state 2p

   izeta = 1
                     rc =    5.658549
                 energy =    1.109913
                kinetic =    2.304789
    potential(screened) =   -1.194876
       potential(ionic) =   -4.013592
atom: Total number of Sankey-type orbitals: 13

atm_pop: Valence configuration (for local Pseudopot. screening):
 2s( 2.00)                                                            
 2p( 2.00)                                                            
Vna: chval, zval:    4.00000   4.00000

Vna:  Cut-off radius for the neutral-atom potential:   5.658549
comcore: Pseudo-core radius Rcore=  1.791422

atom: _________________________________________________________________________

prinput: Basis input ----------------------------------------------------------

PAO.BasisType split     

%block ChemicalSpeciesLabel
    1    7 N                       # Species index, atomic number, species label
    2    6 C                       # Species index, atomic number, species label
%endblock ChemicalSpeciesLabel

%block PAO.Basis                 # Define Basis set
N                     2                    # Species label, number of l-shells
 n=2   0   2                         # n, l, Nzeta 
   4.071      2.905   
   1.000      1.000   
 n=2   1   2 P   1                   # n, l, Nzeta, Polarization, NzetaPol
   4.973      3.054   
   1.000      1.000   
C                     2                    # Species label, number of l-shells
 n=2   0   2                         # n, l, Nzeta 
   4.633      3.432   
   1.000      1.000   
 n=2   1   2 P   1                   # n, l, Nzeta, Polarization, NzetaPol
   5.659      3.653   
   1.000      1.000   
%endblock PAO.Basis

prinput: ----------------------------------------------------------------------

coor:   Atomic-coordinates input format  =     Fractional

siesta: Atomic coordinates (Bohr) and species
siesta:     -0.02582   5.28395   0.00000  1        1
siesta:      9.28770  29.48119   0.00000  1        2
siesta:     -4.68258  34.85847   0.00000  1        3
siesta:      4.63094  10.66124   0.00000  1        4
siesta:      6.95932  17.38257   0.00000  1        5
siesta:     11.61608  22.75985   0.00000  1        6
siesta:     -0.02582  10.66124   0.00000  1        7
siesta:      2.30256  17.38257   0.00000  1        8
siesta:      6.95932  22.75985   0.00000  1        9
siesta:     -4.68258  18.72698   0.00000  1       10
siesta:     -2.35420  25.44831   0.00000  1       11
siesta:     -9.33934  26.79272   0.00000  1       12
siesta:      2.30256  30.82560   0.00000  1       13
siesta:     -0.02582  42.92421   0.00000  1       14
siesta:     -0.02582   2.59549   0.00000  2       15
siesta:     -2.35420  38.89134   0.00000  2       16
siesta:     -2.35420  41.57980   0.00000  2       17
siesta:      2.30256  38.89134   0.00000  2       18
siesta:      2.30256  41.57980   0.00000  2       19
siesta:      4.63094  34.85847   0.00000  2       20
siesta:      4.63094  37.54693   0.00000  2       21
siesta:      6.95932  30.82560   0.00000  2       22
siesta:      6.95932  33.51406   0.00000  2       23
siesta:      9.28770  26.79272   0.00000  2       24
siesta:     -4.68258  37.54693   0.00000  2       25
siesta:      2.30256   6.62836   0.00000  2       26
siesta:      2.30256   9.31683   0.00000  2       27
siesta:      4.63094  13.34970   0.00000  2       28
siesta:      6.95932  14.69411   0.00000  2       29
siesta:      9.28770  18.72698   0.00000  2       30
siesta:      9.28770  21.41544   0.00000  2       31
siesta:     11.61608  25.44831   0.00000  2       32
siesta:     -2.35420   6.62836   0.00000  2       33
siesta:     -2.35420   9.31683   0.00000  2       34
siesta:     -0.02582  13.34970   0.00000  2       35
siesta:      2.30256  14.69411   0.00000  2       36
siesta:      4.63094  18.72698   0.00000  2       37
siesta:      4.63094  21.41544   0.00000  2       38
siesta:      6.95932  25.44831   0.00000  2       39
siesta:     -4.68258  10.66124   0.00000  2       40
siesta:     -4.68258  13.34970   0.00000  2       41
siesta:     -2.35420  14.69411   0.00000  2       42
siesta:     -2.35420  17.38257   0.00000  2       43
siesta:     -0.02582  18.72698   0.00000  2       44
siesta:     -0.02582  21.41544   0.00000  2       45
siesta:      2.30256  22.75985   0.00000  2       46
siesta:      2.30256  25.44831   0.00000  2       47
siesta:     -7.01096  14.69411   0.00000  2       48
siesta:     -7.01096  17.38257   0.00000  2       49
siesta:     -4.68258  21.41544   0.00000  2       50
siesta:     -2.35420  22.75985   0.00000  2       51
siesta:     -9.33934  18.72698   0.00000  2       52
siesta:     -9.33934  21.41544   0.00000  2       53
siesta:     -7.01096  22.75985   0.00000  2       54
siesta:     -7.01096  25.44831   0.00000  2       55
siesta:    -11.66772  22.75985   0.00000  2       56
siesta:    -11.66772  25.44831   0.00000  2       57
siesta:     -9.33934  29.48119   0.00000  2       58
siesta:      4.63094  26.79272   0.00000  2       59
siesta:      4.63094  29.48119   0.00000  2       60
siesta:     -0.02582  26.79272   0.00000  2       61
siesta:     -0.02582  29.48119   0.00000  2       62
siesta:     -4.68258  26.79272   0.00000  2       63
siesta:     -4.68258  29.48119   0.00000  2       64
siesta:      2.30256  33.51406   0.00000  2       65
siesta:     -2.35420  30.82560   0.00000  2       66
siesta:     -2.35420  33.51406   0.00000  2       67
siesta:     -7.01096  30.82560   0.00000  2       68
siesta:     -7.01096  33.51406   0.00000  2       69
siesta:     -0.02582  34.85847   0.00000  2       70
siesta:     -0.02582  37.54693   0.00000  2       71
siesta:     -0.02582  45.61267   0.00000  2       72

siesta: System type = slab      

initatomlists: Number of atoms, orbitals, and projectors:     72   936  1152

siesta: ******************** Simulation parameters ****************************
siesta:
siesta: The following are some of the parameters of the simulation.
siesta: A complete list of the parameters used, including default values,
siesta: can be found in file out.fdf
siesta:
redata: Non-Collinear-spin run           =     F
redata: SpinPolarized (Up/Down) run      =     F
redata: Number of spin components        =     1
redata: Long output                      =     F
redata: Number of Atomic Species         =        2
redata: Charge density info will appear in .RHO file
redata: Write Mulliken Pop.              =     NO
redata: Mesh Cutoff                      =   200.0000  Ry
redata: Net charge of the system         =     0.0000 |e|
redata: Max. number of SCF Iter          =      500
redata: SCF convergence failure will abort job
redata: Performing Pulay mixing using    =    10 iterations
redata: Mix DM in first SCF step ?       =     F
redata: Write Pulay info on disk?        =     F
redata: Discard 1st Pulay DM after  kick =     F
redata: New DM Mixing Weight             =     0.0500
redata: New DM Occupancy tolerance       = 0.000000000001
redata: No kicks to SCF
redata: DM Mixing Weight for Kicks       =     0.5000
redata: DM Tolerance for SCF             =     0.000100
redata: Require Energy convergence for SCF =     F
redata: DM Energy tolerance for SCF      =     0.000100 eV
redata: Require Harris convergence for SCF =     F
redata: DM Harris energy tolerance for SCF =     0.000100 eV
redata: Using Saved Data (generic)   =     F
redata: Use continuation files for DM    =     T
redata: Neglect nonoverlap interactions  =     F
redata: Method of Calculation            =     Diagonalization
redata: Divide and Conquer               =     T
redata: Electronic Temperature           =     0.0019  Ry
redata: Fix the spin of the system       =     F
redata: Dynamics option                  =     Verlet MD run
redata: Initial MD time step             =        1
redata:   Final MD time step             =        1
redata: Length of MD time step           =     1.0000  fs
redata: Initial Temperature of MD run    =     0.0000  K
redata: Perform a MD quench              =     F
redata: ***********************************************************************
Total number of electrons:   302.000000
Total ionic charge:   302.000000

* ProcessorY, Blocksize:    3  24

k-point displ. along   1 input, could be:     0.50    0.00
k-point displ. along   2 input, could be:     0.50    0.00
 Kpoints in:          231 . Kpoints trimmed:          231

siesta: k-grid: Number of k-points =   231
siesta: k-grid: Cutoff (effective) =     5.000 Ang
siesta: k-grid: Supercell and displacements
siesta: k-grid:   21   0   0      0.500
siesta: k-grid:    0  21   0      0.500
siesta: k-grid:    0   0   1      0.000
Naive supercell factors:     2    2    2

superc: Internal auxiliary supercell:     2 x     2 x     2  =       8
superc: Number of atoms, orbitals, and projectors:    576   7488   9216

* Maximum dynamic memory allocated =     4 MB

siesta:                 ==============================
                            Begin MD step =      1
                        ==============================

superc: Internal auxiliary supercell:     2 x     2 x     2  =       8
superc: Number of atoms, orbitals, and projectors:    576   7488   9216

outcell: Unit cell vectors (Ang):
       12.804619    7.392750    0.000000
        0.000000   14.785500    0.000000
        0.000000    0.000000   10.000000

outcell: Cell vector modules (Ang)   :   14.785500   14.785500   10.000000
outcell: Cell angles (23,13,12) (deg):     90.0000     90.0000     60.0000
outcell: Cell volume (Ang**3)        :   1893.2269
New_DM. Step:     1
Initializing Density Matrix...

InitMesh: MESH =   120 x   120 x    90 =     1296000
InitMesh: Mesh cutoff (required, used) =   200.000   223.865 Ry

* Maximum dynamic memory allocated =   134 MB

stepf: Fermi-Dirac step function

siesta: Program's energy decomposition (eV):
siesta: Ebs     =     -6145.765272
siesta: Eions   =     20653.466889
siesta: Ena     =      4857.994146
siesta: Ekin    =      7553.093915
siesta: Enl     =       216.047750
siesta: DEna    =        -0.000015
siesta: DUscf   =         0.000000
siesta: DUext   =         0.000000
siesta: Exc     =     -4520.300190
siesta: eta*DQ  =         0.000000
siesta: Emadel  =         0.000000
siesta: Emeta   =         0.000000
siesta: Emolmec =         0.000000
siesta: Ekinion =         0.000000
siesta: Eharris =    -12183.597077
siesta: Etot    =    -12546.631283
siesta: FreeEng =    -12546.631283

siesta: iscf   Eharris(eV)      E_KS(eV)   FreeEng(eV)   dDmax  Ef(eV)
siesta:    1   -12183.5971   -12546.6313   -12546.6313  7.4032 -7.0512
timer: Routine,Calls,Time,% = IterSCF        1    3012.676  99.59
elaps: Routine,Calls,Wall,% = IterSCF        1     251.653  99.59
siesta:    2   -15343.7549   -11661.9031   -11661.9276  8.0986 -2.2959
siesta:    3   -12133.1421   -12266.7310   -12266.7879  1.7672 -4.1147
siesta:    4   -12091.2695   -12191.9048   -12191.9508  0.9729 -3.7850
siesta:    5   -12064.4006   -12159.3106   -12159.3585  0.8522 -4.0991
siesta:    6   -12050.4536   -12133.3889   -12133.4720  0.7881 -4.0696
siesta:    7   -12041.4560   -12119.8158   -12119.8233  0.7991 -4.1477
siesta:    8   -12039.3601   -12110.1341   -12110.1725  0.7847 -4.0509
siesta:    9   -12036.9865   -12083.1695   -12083.2289  0.6481 -4.0117
siesta:   10   -12038.6235   -12046.9157   -12046.9675  0.3206 -3.8805
siesta:   11   -12037.8591   -12045.4761   -12045.5296  0.3188 -3.9226
siesta:   12   -12037.2489   -12033.5788   -12033.6392  0.3824 -3.8425
siesta:   13   -12036.7744   -12029.5891   -12029.6347  0.2416 -3.8393
siesta:   14   -12036.5538   -12028.9362   -12028.9791  0.1435 -3.9313
siesta:   15   -12036.2537   -12029.7712   -12029.8306  0.1021 -3.9438
siesta:   16   -12036.1218   -12031.2376   -12031.2948  0.0677 -3.9623
siesta:   17   -12036.0725   -12031.6803   -12031.7424  0.0631 -3.9665
siesta:   18   -12036.0381   -12032.6277   -12032.6870  0.0300 -3.9674
siesta:   19   -12036.0258   -12033.0387   -12033.0953  0.0238 -3.9726
siesta:   20   -12036.0254   -12034.0878   -12034.1436  0.0162 -3.9743
siesta:   21   -12036.0191   -12035.1983   -12035.2548  0.0171 -3.9745
siesta:   22   -12036.0168   -12035.6448   -12035.7022  0.0149 -3.9738
siesta:   23   -12036.0153   -12035.8737   -12035.9308  0.0114 -3.9733
siesta:   24   -12036.0143   -12035.6981   -12035.7552  0.0088 -3.9730
siesta:   25   -12036.0141   -12035.7467   -12035.8040  0.0042 -3.9703
siesta:   26   -12036.0139   -12035.7582   -12035.8154  0.0031 -3.9707
siesta:   27   -12036.0139   -12035.8657   -12035.9230  0.0026 -3.9707
siesta:   28   -12036.0139   -12035.8986   -12035.9559  0.0014 -3.9708
siesta:   29   -12036.0139   -12035.9532   -12036.0105  0.0008 -3.9711
siesta:   30   -12036.0139   -12035.9724   -12036.0296  0.0006 -3.9710
siesta:   31   -12036.0139   -12035.9936   -12036.0508  0.0002 -3.9709
siesta:   32   -12036.0139   -12035.9900   -12036.0472  0.0002 -3.9709
siesta:   33   -12036.0139   -12035.9891   -12036.0464  0.0002 -3.9710
siesta:   34   -12036.0139   -12035.9950   -12036.0522  0.0002 -3.9710
siesta:   35   -12036.0139   -12036.0000   -12036.0573  0.0001 -3.9710

siesta: E_KS(eV) =           -12036.0055

siesta: E_KS - E_eggbox =    -12036.0055

siesta: Atomic forces (eV/Ang):
----------------------------------------
   Tot   -0.378165   -0.050530    0.000000
----------------------------------------
   Max  663.042487
   Res  169.861665    sqrt( Sum f_i^2 / 3N )
----------------------------------------
   Max  663.042487    constrained

Stress-tensor-Voigt (kbar):     -637.02    -3004.00       -0.09        2.13        0.00        0.00
(Free)E + p*V (eV/cell)   -10601.8948
Target enthalpy (eV/cell)   -12036.0628

siesta: Stress tensor (static) (eV/Ang**3):
        -0.397594    0.001332    0.000000
         0.001332   -1.874929    0.000000
         0.000000    0.000000   -0.000054

siesta: Pressure (static):       1213.70308443  kBar

siesta: Stress tensor (total) (eV/Ang**3):
        -0.397594    0.001332    0.000000
         0.001332   -1.874929    0.000000
         0.000000    0.000000   -0.000054

siesta: Pressure (total):       1213.70308443  kBar

siesta: Temp_ion =       0.000 K

* Maximum dynamic memory allocated =   146 MB
Computing bands...

siesta: Program's energy decomposition (eV):
siesta: Ebs     =     -4901.222251
siesta: Eions   =     20653.466889
siesta: Ena     =      4857.994146
siesta: Ekin    =     10591.906545
siesta: Enl     =     -1464.737849
siesta: DEna    =      -779.681408
siesta: DUscf   =       103.068263
siesta: DUext   =         0.000000
siesta: Exc     =     -4691.088346
siesta: eta*DQ  =         0.000000
siesta: Emadel  =         0.000000
siesta: Emeta   =         0.000000
siesta: Emolmec =         0.000000
siesta: Ekinion =         0.000000
siesta: Eharris =    -12036.013867
siesta: Etot    =    -12036.005539
siesta: FreeEng =    -12036.062790

siesta: Final energy (eV):
siesta:  Band Struct. =   -4901.222251
siesta:       Kinetic =   10591.906545
siesta:       Hartree =   34334.787531
siesta:    Ext. field =       0.000000
siesta:   Exch.-corr. =   -4691.088346
siesta:  Ion-electron =  -78831.671865
siesta:       Ion-ion =   26560.060595
siesta:       Ekinion =       0.000000
siesta:         Total =  -12036.005539

siesta: Atomic forces (eV/Ang):
siesta:      1    0.335429 -122.671103    0.000000
siesta:      2   -1.257015   -1.726392    0.000000
siesta:      3  -29.009195    7.783483    0.000000
siesta:      4   35.678897  656.433708    0.000000
siesta:      5   -0.202949   -1.095966    0.000000
siesta:      6   -1.288511    4.383775    0.000000
siesta:      7    1.418780  663.042487    0.000000
siesta:      8   26.825872   -5.509485    0.000000
siesta:      9   -0.067918    1.674693    0.000000
siesta:     10    2.154295    3.406331    0.000000
siesta:     11   -1.359107   -0.524459    0.000000
siesta:     12   -0.521813    1.833809    0.000000
siesta:     13   25.199518    4.891922    0.000000
siesta:     14    3.524388  124.807476    0.000000
siesta:     15   13.596072  550.954456    0.000000
siesta:     16   -0.460168  128.888398    0.000000
siesta:     17  -14.330227 -553.439974    0.000000
siesta:     18   -1.607244  130.837712    0.000000
siesta:     19   21.539069 -554.811418    0.000000
siesta:     20   26.365635    6.106074    0.000000
siesta:     21   26.987558 -653.774424    0.000000
siesta:     22    1.480140   -0.922010    0.000000
siesta:     23   -1.991094    0.801056    0.000000
siesta:     24   -0.369869    3.989004    0.000000
siesta:     25  -27.955251 -549.924123    0.000000
siesta:     26   21.514193  551.147133    0.000000
siesta:     27   -5.520188 -136.621088    0.000000
siesta:     28   24.292842   -4.458903    0.000000
siesta:     29   -1.624737    0.393237    0.000000
siesta:     30   -0.452617    0.347727    0.000000
siesta:     31    0.685780   -1.064689    0.000000
siesta:     32    0.647218   -5.664809    0.000000
siesta:     33  -27.323835  552.683042    0.000000
siesta:     34    0.697885 -128.468434    0.000000
siesta:     35   -1.620236 -119.651134    0.000000
siesta:     36    2.639162  558.066393    0.000000
siesta:     37   -0.197643    2.949321    0.000000
siesta:     38    0.769731   -0.310878    0.000000
siesta:     39   -0.470403   -1.857435    0.000000
siesta:     40  -31.400640  549.083066    0.000000
siesta:     41  -26.120204   -5.940904    0.000000
siesta:     42  -12.283595  560.249302    0.000000
siesta:     43  -25.911942   -4.605117    0.000000
siesta:     44  -11.360035  579.645316    0.000000
siesta:     45   -0.829996    1.119203    0.000000
siesta:     46    0.574811    0.313925    0.000000
siesta:     47   -1.250603   -0.187628    0.000000
siesta:     48    2.960570   -0.949508    0.000000
siesta:     49   -1.820674    0.038854    0.000000
siesta:     50   -0.307398   -0.507993    0.000000
siesta:     51    0.344434    0.283190    0.000000
siesta:     52    1.894322   -0.301697    0.000000
siesta:     53   -1.966334   -2.605938    0.000000
siesta:     54   -0.120090    0.675080    0.000000
siesta:     55   -0.084713   -0.498318    0.000000
siesta:     56    0.204633    7.037523    0.000000
siesta:     57    1.185592   -5.000718    0.000000
siesta:     58   -0.522677   -0.626189    0.000000
siesta:     59    0.364699    0.176489    0.000000
siesta:     60   -0.730882   -2.769556    0.000000
siesta:     61   -0.048021   -1.393362    0.000000
siesta:     62  -12.340629 -580.045318    0.000000
siesta:     63    0.251415   -0.609010    0.000000
siesta:     64    3.125813   -2.405871    0.000000
siesta:     65    4.720675 -553.228445    0.000000
siesta:     66  -25.100096    3.596557    0.000000
siesta:     67   -0.615336 -563.246680    0.000000
siesta:     68   -0.461251   -0.362888    0.000000
siesta:     69    1.500827    1.111197    0.000000
siesta:     70   -0.469130  121.600397    0.000000
siesta:     71    5.510069 -661.490948    0.000000
siesta:     72   12.005777 -551.129051    0.000000
siesta: ----------------------------------------
siesta:    Tot   -0.378165   -0.050530    0.000000

siesta: Stress tensor (static) (eV/Ang**3):
siesta:    -0.397594    0.001332    0.000000
siesta:     0.001332   -1.874929    0.000000
siesta:     0.000000    0.000000   -0.000054

siesta: Cell volume =       1893.226884 Ang**3

siesta: Pressure (static):
siesta:                Solid            Molecule  Units
siesta:           0.00825042          0.13311065  Ry/Bohr**3
siesta:           0.75752569         12.22176723  eV/Ang**3
siesta:        1213.70308443      19581.64154370  kBar
(Free)E+ p_basis*V_orbitals  =      -12007.326662
(Free)Eharris+ p_basis*V_orbitals  =      -12007.340507

siesta: Electric dipole (a.u.)  =    0.000000    0.000000    0.000000
siesta: Electric dipole (Debye) =    0.000000    0.000000    0.000000

* Maximum dynamic memory allocated : Node    0 =   146 MB
* Maximum dynamic memory allocated : Node    1 =    59 MB
* Maximum dynamic memory allocated : Node    2 =    59 MB
* Maximum dynamic memory allocated : Node    3 =   134 MB
* Maximum dynamic memory allocated : Node    4 =   141 MB
* Maximum dynamic memory allocated : Node    5 =    52 MB
* Maximum dynamic memory allocated : Node    6 =    54 MB
* Maximum dynamic memory allocated : Node    7 =   137 MB
* Maximum dynamic memory allocated : Node    8 =   130 MB
* Maximum dynamic memory allocated : Node    9 =    53 MB
* Maximum dynamic memory allocated : Node   10 =    54 MB
* Maximum dynamic memory allocated : Node   11 =   124 MB

* Maximum memory occured during matrixMtoO                    

timer: CPU execution times:
timer:  Routine       Calls   Time/call    Tot.time        %
timer:  siesta            1  102948.006  102948.006   100.00
timer:  Setup             1       3.410       3.410     0.00
timer:  bands             3     225.955     677.864     0.66
timer:  writewave         1       0.022       0.022     0.00
timer:  KSV_init          1       0.007       0.007     0.00
timer:  IterMD            1  102259.869  102259.869    99.33
timer:  hsparse           1       0.171       0.171     0.00
timer:  overlap           1       7.033       7.033     0.01
timer:  IterSCF          35    2918.249  102138.713    99.21
timer:  kinefsm           2       3.567       7.134     0.01
timer:  nlefsm            2      18.441      36.881     0.04
timer:  DHSCF            36      60.542    2179.496     2.12
timer:  DHSCF1            1       0.904       0.904     0.00
timer:  DHSCF2            1      24.322      24.322     0.02
timer:  REORD           290       0.002       0.681     0.00
timer:  POISON           37       0.450      16.657     0.02
timer:  DHSCF3           36      59.249    2132.951     2.07
timer:  rhoofd           36      12.551     451.824     0.44
timer:  cellXC           36       2.428      87.409     0.08
timer:  vmat             36      27.989    1007.591     0.98
timer:  MolMec            2       0.000       0.000     0.00
timer:  diagon           35    2856.462   99976.155    97.11
timer:  c-eigval       8206       5.587   45844.847    44.53
timer:  c-buildHS      8206       0.033     271.406     0.26
timer:  cdiag         16291       5.681   92543.726    89.89
timer:  cdiag1        16291       0.259    4215.462     4.09
timer:  cdiag2        16291       1.831   29825.342    28.97
timer:  cdiag3        16291       3.388   55200.367    53.62
timer:  cdiag4        16291       0.088    1437.174     1.40
timer:  c-eigvec       8085       5.837   47190.851    45.84
timer:  c-buildD       8085       0.937    7574.462     7.36
timer:  DHSCF4            1      21.074      21.074     0.02
timer:  dfscf             1      19.648      19.648     0.02
timer:  overfsm           1       0.285       0.285     0.00
timer:  optical           1       6.267       6.267     0.01
  

elaps: ELAPSED times:
elaps:  Routine       Calls   Time/call    Tot.time        %
elaps:  siesta            1    8599.201    8599.201   100.00
elaps:  Setup             1       0.284       0.284     0.00
elaps:  bands             3      18.889      56.666     0.66
elaps:  writewave         1       0.002       0.002     0.00
elaps:  KSV_init          1       0.000       0.000     0.00
elaps:  IterMD            1    8541.722    8541.722    99.33
elaps:  hsparse           1       0.016       0.016     0.00
elaps:  overlap           1       0.708       0.708     0.01
elaps:  IterSCF          35     243.760    8531.602    99.21
elaps:  kinefsm           2       0.361       0.721     0.01
elaps:  nlefsm            2       1.588       3.175     0.04
elaps:  DHSCF            36       5.108     183.877     2.14
elaps:  DHSCF1            1       0.077       0.077     0.00
elaps:  DHSCF2            1       2.031       2.031     0.02
elaps:  REORD           290       0.000       0.085     0.00
elaps:  POISON           37       0.038       1.405     0.02
elaps:  DHSCF3           36       4.950     178.202     2.07
elaps:  rhoofd           36       2.263      81.468     0.95
elaps:  cellXC           36       0.202       7.287     0.08
elaps:  vmat             36       2.339      84.198     0.98
elaps:  MolMec            2       0.000       0.000     0.00
elaps:  diagon           35     238.602    8351.067    97.11
elaps:  c-eigval       8206       0.467    3829.362    44.53
elaps:  c-buildHS      8206       0.003      27.807     0.32
elaps:  cdiag         16291       0.472    7684.869    89.37
elaps:  cdiag1        16291       0.021     346.117     4.02
elaps:  cdiag2        16291       0.153    2493.604    29.00
elaps:  cdiag3        16291       0.283    4617.898    53.70
elaps:  cdiag4        16291       0.007     115.050     1.34
elaps:  c-eigvec       8085       0.483    3906.546    45.43
elaps:  c-buildD       8085       0.083     667.700     7.76
elaps:  DHSCF4            1       3.530       3.530     0.04
elaps:  dfscf             1       3.341       3.341     0.04
elaps:  overfsm           1       0.028       0.028     0.00
elaps:  optical           1       0.000       0.000     0.00
  
>> End of run:   8-MAY-2016   7:35:28
