Siesta Version:                                        siesta-3.2-pl-3
Architecture  : x86_64-unknown-linux-gnu--unknown
Compiler flags: mpiifort -g -O2 -fPIC -xSSE4.1 -fp-model source -shared-intel 
PARALLEL version

* Running on    8 nodes in parallel
>> Start of run:  25-APR-2016   8:23:28

                           ***********************       
                           *  WELCOME TO SIESTA  *       
                           ***********************       

reinit: Reading from standard input
************************** Dump of input data file ****************************
#(1) General system descriptors
SystemName            GRP_doping    # Descriptive name of the system
SystemLabel           GRP_doping    # Short name for naming files
%include STRUCT.fdf
%include KPT.fdf
%include BASIS.fdf
#%include TS.fdf # for transiesta calculation
#(4) DFT, Grid, SCF
XC.functional         GGA           # LDA or GGA (default = LDA)
XC.authors            PBE           # CA (Ceperley-Aldr) = PZ
                                    #    (Perdew-Zunger) - LDA - Default
                                    # PW92 (Perdew-Wang-92) - LDA
                                    # PBE (Perdew-Burke-Ernzerhof) - GGA
MeshCutoff            200.000000    Ry      # Default: 50.0 Ry ~ 0.444 Bohr
                                    #         100.0 Ry ~ 0.314 Bohr
MaxSCFIterations      500           # Default: 50
DM.MixingWeight       0.05          # Default: 0.25
DM.NumberPulay        10            # Default: 0
DM.PulayOnFile        F             # SystemLabel.P1, SystemLabel.P2
DM.Tolerance          1.d-4         # Default: 1.d-4
DM.UseSaveDM          .true.        # because of the bug
SCFMustConverge       .true.
NeglNonOverlapInt     F             # Default: F
#(5) Eigenvalue problem: order-N or diagonalization
SolutionMethod        Diagon        # or Transiesta
ElectronicTemperature 300.0 K       # Default: 300.0 K
#(6) Molecular dynamics and relaxations
#MD.TypeOfRun          CG            # Type of dynamics:
#MD.VariableCell       F
#MD.NumCGsteps         0           # 0 for single-point / 100 for gopt
#MD.MaxCGDispl         0.2 Bohr      # Default: 0.2 Bohr
#MD.MaxForceTol        0.02 eV/Ang   # Default: 0.04 eV/Ang
#MD.MaxStressTol       1.0 GPa       # Default: 1.0 GPa
# Geometry Constraints
#%block GeometryConstraints
#	position from 1 to 44
#%endblock GeometryConstraints
BandLinesScale   pi/a
%block BandLines
 1   0.00000000  0.00000000  0.00000000
50   0.00000000  0.07809418  0.00000000
50   0.04509075  0.07809242  0.00000000
20   0.00000000  0.00000000  0.00000000
%endblock BandLines
************************** End of input data file *****************************

reinit: -----------------------------------------------------------------------
reinit: System Name: GRP_doping
reinit: -----------------------------------------------------------------------
reinit: System Label: GRP_doping                                                  
reinit: -----------------------------------------------------------------------

initatom: Reading input for the pseudopotentials and atomic orbitals ----------
 Species number:            1  Label: B Atomic number:           5
 Species number:            2  Label: C Atomic number:           6
Ground state valence configuration:   2s02  2p01
Reading pseudopotential information in formatted form from B.psf

Valence configuration for pseudopotential generation:
2s( 2.00) rc: 1.74
2p( 1.00) rc: 1.74
3d( 0.00) rc: 1.74
4f( 0.00) rc: 1.74
Ground state valence configuration:   2s02  2p02
Reading pseudopotential information in formatted form from C.psf

Valence configuration for pseudopotential generation:
2s( 2.00) rc: 1.54
2p( 2.00) rc: 1.54
3d( 0.00) rc: 1.54
4f( 0.00) rc: 1.54
For B, standard SIESTA heuristics set lmxkb to 3
 (one more than the basis l, including polarization orbitals).
Use PS.lmax or PS.KBprojectors blocks to override.
For C, standard SIESTA heuristics set lmxkb to 3
 (one more than the basis l, including polarization orbitals).
Use PS.lmax or PS.KBprojectors blocks to override.

<basis_specs>
===============================================================================
B                    Z=   5    Mass=  10.810        Charge= 0.17977+309
Lmxo=1 Lmxkb= 3    BasisType=split      Semic=F
L=0  Nsemic=0  Cnfigmx=2
          n=1  nzeta=2  polorb=0
            splnorm:   0.15000    
               vcte:    0.0000    
               rinn:    0.0000    
                rcs:    0.0000      0.0000    
            lambdas:    1.0000      1.0000    
L=1  Nsemic=0  Cnfigmx=2
          n=1  nzeta=2  polorb=1
            splnorm:   0.15000    
               vcte:    0.0000    
               rinn:    0.0000    
                rcs:    0.0000      0.0000    
            lambdas:    1.0000      1.0000    
-------------------------------------------------------------------------------
L=0  Nkbl=1  erefs: 0.17977+309
L=1  Nkbl=1  erefs: 0.17977+309
L=2  Nkbl=1  erefs: 0.17977+309
L=3  Nkbl=1  erefs: 0.17977+309
===============================================================================
</basis_specs>

atom: Called for B                     (Z =   5)

read_vps: Pseudopotential generation method:
read_vps: ATM3      Troullier-Martins                       
Total valence charge:    3.00000

read_vps: Pseudopotential includes a core correction:
read_vps: Pseudo-core for xc-correction

xc_check: Exchange-correlation functional:
xc_check: GGA Perdew, Burke & Ernzerhof 1996
V l=0 = -2*Zval/r beyond r=  1.7165
V l=1 = -2*Zval/r beyond r=  1.7165
V l=2 = -2*Zval/r beyond r=  1.7165
V l=3 = -2*Zval/r beyond r=  1.6951
All V_l potentials equal beyond r=  1.7165
This should be close to max(r_c) in ps generation
All pots = -2*Zval/r beyond r=  1.7165

VLOCAL1: 99.0% of the norm of Vloc inside     14.733 Ry
VLOCAL1: 99.9% of the norm of Vloc inside     33.577 Ry
atom: Maximum radius for 4*pi*r*r*local-pseudopot. charge    2.04484
atom: Maximum radius for r*vlocal+2*Zval:    1.75994
GHOST: No ghost state for L =  0
GHOST: No ghost state for L =  1
GHOST: No ghost state for L =  2
GHOST: No ghost state for L =  3

KBgen: Kleinman-Bylander projectors: 
   l= 0   rc=  1.897051   el= -0.693730   Ekb=  4.595746   kbcos=  0.286105
   l= 1   rc=  1.920920   el= -0.265236   Ekb= -2.350715   kbcos= -0.315747
   l= 2   rc=  2.044840   el=  0.002055   Ekb= -0.690767   kbcos= -0.013822
   l= 3   rc=  2.149707   el=  0.003188   Ekb= -0.315358   kbcos= -0.002055

KBgen: Total number of  Kleinman-Bylander projectors:   16
atom: -------------------------------------------------------------------------

atom: SANKEY-TYPE ORBITALS:
atom: Selected multiple-zeta basis: split     

SPLIT: Orbitals with angular momentum L= 0

SPLIT: Basis orbitals for state 2s

SPLIT: PAO cut-off radius determined from an
SPLIT: energy shift=  0.007350 Ry

   izeta = 1
                 lambda =    1.000000
                     rc =    5.422032
                 energy =   -0.686029
                kinetic =    0.576707
    potential(screened) =   -1.262736
       potential(ionic) =   -3.271094

   izeta = 2
                 rmatch =    4.222573
              splitnorm =    0.150000
                 energy =   -0.602132
                kinetic =    0.858975
    potential(screened) =   -1.461107
       potential(ionic) =   -3.582536

SPLIT: Orbitals with angular momentum L= 1

SPLIT: Basis orbitals for state 2p

SPLIT: PAO cut-off radius determined from an
SPLIT: energy shift=  0.007350 Ry

   izeta = 1
                 lambda =    1.000000
                     rc =    6.790259
                 energy =   -0.258578
                kinetic =    1.481412
    potential(screened) =   -1.739989
       potential(ionic) =   -3.657461

   izeta = 2
                 rmatch =    4.608740
              splitnorm =    0.150000
                 energy =   -0.173757
                kinetic =    2.186690
    potential(screened) =   -2.360447
       potential(ionic) =   -4.464260

POLgen: Perturbative polarization orbital with L=  2

POLgen: Polarization orbital for state 2p

   izeta = 1
                     rc =    6.790259
                 energy =    0.684082
                kinetic =    1.471481
    potential(screened) =   -0.787399
       potential(ionic) =   -2.406985
atom: Total number of Sankey-type orbitals: 13

atm_pop: Valence configuration (for local Pseudopot. screening):
 2s( 2.00)                                                            
 2p( 1.00)                                                            
Vna: chval, zval:    3.00000   3.00000

Vna:  Cut-off radius for the neutral-atom potential:   6.790259
comcore: Pseudo-core radius Rcore=  2.122997

atom: _________________________________________________________________________

<basis_specs>
===============================================================================
C                    Z=   6    Mass=  12.010        Charge= 0.17977+309
Lmxo=1 Lmxkb= 3    BasisType=split      Semic=F
L=0  Nsemic=0  Cnfigmx=2
          n=1  nzeta=2  polorb=0
            splnorm:   0.15000    
               vcte:    0.0000    
               rinn:    0.0000    
                rcs:    0.0000      0.0000    
            lambdas:    1.0000      1.0000    
L=1  Nsemic=0  Cnfigmx=2
          n=1  nzeta=2  polorb=1
            splnorm:   0.15000    
               vcte:    0.0000    
               rinn:    0.0000    
                rcs:    0.0000      0.0000    
            lambdas:    1.0000      1.0000    
-------------------------------------------------------------------------------
L=0  Nkbl=1  erefs: 0.17977+309
L=1  Nkbl=1  erefs: 0.17977+309
L=2  Nkbl=1  erefs: 0.17977+309
L=3  Nkbl=1  erefs: 0.17977+309
===============================================================================
</basis_specs>

atom: Called for C                     (Z =   6)

read_vps: Pseudopotential generation method:
read_vps: ATM3      Troullier-Martins                       
Total valence charge:    4.00000

read_vps: Pseudopotential includes a core correction:
read_vps: Pseudo-core for xc-correction

xc_check: Exchange-correlation functional:
xc_check: GGA Perdew, Burke & Ernzerhof 1996
V l=0 = -2*Zval/r beyond r=  1.5227
V l=1 = -2*Zval/r beyond r=  1.5227
V l=2 = -2*Zval/r beyond r=  1.5227
V l=3 = -2*Zval/r beyond r=  1.5038
All V_l potentials equal beyond r=  1.5227
This should be close to max(r_c) in ps generation
All pots = -2*Zval/r beyond r=  1.5227

VLOCAL1: 99.0% of the norm of Vloc inside     18.722 Ry
VLOCAL1: 99.9% of the norm of Vloc inside     42.668 Ry
atom: Maximum radius for 4*pi*r*r*local-pseudopot. charge    1.83678
atom: Maximum radius for r*vlocal+2*Zval:    1.58088
GHOST: No ghost state for L =  0
GHOST: No ghost state for L =  1
GHOST: No ghost state for L =  2
GHOST: No ghost state for L =  3

KBgen: Kleinman-Bylander projectors: 
   l= 0   rc=  1.704034   el= -1.009801   Ekb=  5.335044   kbcos=  0.316824
   l= 1   rc=  1.704034   el= -0.388707   Ekb= -3.785862   kbcos= -0.366464
   l= 2   rc=  1.791422   el=  0.001971   Ekb= -0.970471   kbcos= -0.009212
   l= 3   rc=  1.859892   el=  0.003065   Ekb= -0.399525   kbcos= -0.001223

KBgen: Total number of  Kleinman-Bylander projectors:   16
atom: -------------------------------------------------------------------------

atom: SANKEY-TYPE ORBITALS:
atom: Selected multiple-zeta basis: split     

SPLIT: Orbitals with angular momentum L= 0

SPLIT: Basis orbitals for state 2s

SPLIT: PAO cut-off radius determined from an
SPLIT: energy shift=  0.007350 Ry

   izeta = 1
                 lambda =    1.000000
                     rc =    4.632753
                 energy =   -1.002270
                kinetic =    0.855760
    potential(screened) =   -1.858031
       potential(ionic) =   -5.417575

   izeta = 2
                 rmatch =    3.431921
              splitnorm =    0.150000
                 energy =   -0.867111
                kinetic =    1.300804
    potential(screened) =   -2.167915
       potential(ionic) =   -5.962684

SPLIT: Orbitals with angular momentum L= 1

SPLIT: Basis orbitals for state 2p

SPLIT: PAO cut-off radius determined from an
SPLIT: energy shift=  0.007350 Ry

   izeta = 1
                 lambda =    1.000000
                     rc =    5.658549
                 energy =   -0.381140
                kinetic =    2.399701
    potential(screened) =   -2.780841
       potential(ionic) =   -6.206085

   izeta = 2
                 rmatch =    3.653288
              splitnorm =    0.150000
                 energy =   -0.249149
                kinetic =    3.542762
    potential(screened) =   -3.791911
       potential(ionic) =   -7.581078

POLgen: Perturbative polarization orbital with L=  2

POLgen: Polarization orbital for state 2p

   izeta = 1
                     rc =    5.658549
                 energy =    1.109913
                kinetic =    2.304789
    potential(screened) =   -1.194876
       potential(ionic) =   -4.013592
atom: Total number of Sankey-type orbitals: 13

atm_pop: Valence configuration (for local Pseudopot. screening):
 2s( 2.00)                                                            
 2p( 2.00)                                                            
Vna: chval, zval:    4.00000   4.00000

Vna:  Cut-off radius for the neutral-atom potential:   5.658549
comcore: Pseudo-core radius Rcore=  1.791422

atom: _________________________________________________________________________

prinput: Basis input ----------------------------------------------------------

PAO.BasisType split     

%block ChemicalSpeciesLabel
    1    5 B                       # Species index, atomic number, species label
    2    6 C                       # Species index, atomic number, species label
%endblock ChemicalSpeciesLabel

%block PAO.Basis                 # Define Basis set
B                     2                    # Species label, number of l-shells
 n=2   0   2                         # n, l, Nzeta 
   5.422      4.223   
   1.000      1.000   
 n=2   1   2 P   1                   # n, l, Nzeta, Polarization, NzetaPol
   6.790      4.609   
   1.000      1.000   
C                     2                    # Species label, number of l-shells
 n=2   0   2                         # n, l, Nzeta 
   4.633      3.432   
   1.000      1.000   
 n=2   1   2 P   1                   # n, l, Nzeta, Polarization, NzetaPol
   5.659      3.653   
   1.000      1.000   
%endblock PAO.Basis

prinput: ----------------------------------------------------------------------

coor:   Atomic-coordinates input format  =     Fractional

siesta: Atomic coordinates (Bohr) and species
siesta:      2.30256  38.89134   0.00000  1        1
siesta:      4.63094  34.85847   0.00000  1        2
siesta:      4.63094  37.54693   0.00000  1        3
siesta:      6.95932  33.51406   0.00000  1        4
siesta:      4.63094  13.34970   0.00000  1        5
siesta:      6.95932  14.69411   0.00000  1        6
siesta:      6.95932  17.38257   0.00000  1        7
siesta:      9.28770  18.72698   0.00000  1        8
siesta:      9.28770  21.41544   0.00000  1        9
siesta:     11.61608  22.75985   0.00000  1       10
siesta:     -0.02582  18.72698   0.00000  1       11
siesta:     -0.02582  21.41544   0.00000  1       12
siesta:     -4.68258  21.41544   0.00000  1       13
siesta:     -2.35420  22.75985   0.00000  1       14
siesta:     -7.01096  22.75985   0.00000  1       15
siesta:     -7.01096  25.44831   0.00000  1       16
siesta:     -4.68258  26.79272   0.00000  1       17
siesta:     -4.68258  29.48119   0.00000  1       18
siesta:     -2.35420  30.82560   0.00000  1       19
siesta:     -2.35420  33.51406   0.00000  1       20
siesta:     -0.02582  34.85847   0.00000  1       21
siesta:     -0.02582  37.54693   0.00000  1       22
siesta:     -0.02582   2.59549   0.00000  2       23
siesta:     -0.02582   5.28395   0.00000  2       24
siesta:     -2.35420  38.89134   0.00000  2       25
siesta:     -2.35420  41.57980   0.00000  2       26
siesta:      2.30256  41.57980   0.00000  2       27
siesta:      6.95932  30.82560   0.00000  2       28
siesta:      9.28770  26.79272   0.00000  2       29
siesta:      9.28770  29.48119   0.00000  2       30
siesta:     -4.68258  34.85847   0.00000  2       31
siesta:     -4.68258  37.54693   0.00000  2       32
siesta:      2.30256   6.62836   0.00000  2       33
siesta:      2.30256   9.31683   0.00000  2       34
siesta:      4.63094  10.66124   0.00000  2       35
siesta:     11.61608  25.44831   0.00000  2       36
siesta:     -2.35420   6.62836   0.00000  2       37
siesta:     -2.35420   9.31683   0.00000  2       38
siesta:     -0.02582  10.66124   0.00000  2       39
siesta:     -0.02582  13.34970   0.00000  2       40
siesta:      2.30256  14.69411   0.00000  2       41
siesta:      2.30256  17.38257   0.00000  2       42
siesta:      4.63094  18.72698   0.00000  2       43
siesta:      4.63094  21.41544   0.00000  2       44
siesta:      6.95932  22.75985   0.00000  2       45
siesta:      6.95932  25.44831   0.00000  2       46
siesta:     -4.68258  10.66124   0.00000  2       47
siesta:     -4.68258  13.34970   0.00000  2       48
siesta:     -2.35420  14.69411   0.00000  2       49
siesta:     -2.35420  17.38257   0.00000  2       50
siesta:      2.30256  22.75985   0.00000  2       51
siesta:      2.30256  25.44831   0.00000  2       52
siesta:     -7.01096  14.69411   0.00000  2       53
siesta:     -7.01096  17.38257   0.00000  2       54
siesta:     -4.68258  18.72698   0.00000  2       55
siesta:     -2.35420  25.44831   0.00000  2       56
siesta:     -9.33934  18.72698   0.00000  2       57
siesta:     -9.33934  21.41544   0.00000  2       58
siesta:    -11.66772  22.75985   0.00000  2       59
siesta:    -11.66772  25.44831   0.00000  2       60
siesta:     -9.33934  26.79272   0.00000  2       61
siesta:     -9.33934  29.48119   0.00000  2       62
siesta:      4.63094  26.79272   0.00000  2       63
siesta:      4.63094  29.48119   0.00000  2       64
siesta:     -0.02582  26.79272   0.00000  2       65
siesta:     -0.02582  29.48119   0.00000  2       66
siesta:      2.30256  30.82560   0.00000  2       67
siesta:      2.30256  33.51406   0.00000  2       68
siesta:     -7.01096  30.82560   0.00000  2       69
siesta:     -7.01096  33.51406   0.00000  2       70
siesta:     -0.02582  42.92421   0.00000  2       71
siesta:     -0.02582  45.61267   0.00000  2       72

siesta: System type = slab      

initatomlists: Number of atoms, orbitals, and projectors:     72   936  1152

siesta: ******************** Simulation parameters ****************************
siesta:
siesta: The following are some of the parameters of the simulation.
siesta: A complete list of the parameters used, including default values,
siesta: can be found in file out.fdf
siesta:
redata: Non-Collinear-spin run           =     F
redata: SpinPolarized (Up/Down) run      =     F
redata: Number of spin components        =     1
redata: Long output                      =     F
redata: Number of Atomic Species         =        2
redata: Charge density info will appear in .RHO file
redata: Write Mulliken Pop.              =     NO
redata: Mesh Cutoff                      =   200.0000  Ry
redata: Net charge of the system         =     0.0000 |e|
redata: Max. number of SCF Iter          =      500
redata: SCF convergence failure will abort job
redata: Performing Pulay mixing using    =    10 iterations
redata: Mix DM in first SCF step ?       =     F
redata: Write Pulay info on disk?        =     F
redata: Discard 1st Pulay DM after  kick =     F
redata: New DM Mixing Weight             =     0.0500
redata: New DM Occupancy tolerance       = 0.000000000001
redata: No kicks to SCF
redata: DM Mixing Weight for Kicks       =     0.5000
redata: DM Tolerance for SCF             =     0.000100
redata: Require Energy convergence for SCF =     F
redata: DM Energy tolerance for SCF      =     0.000100 eV
redata: Require Harris convergence for SCF =     F
redata: DM Harris energy tolerance for SCF =     0.000100 eV
redata: Using Saved Data (generic)   =     F
redata: Use continuation files for DM    =     T
redata: Neglect nonoverlap interactions  =     F
redata: Method of Calculation            =     Diagonalization
redata: Divide and Conquer               =     T
redata: Electronic Temperature           =     0.0019  Ry
redata: Fix the spin of the system       =     F
redata: Dynamics option                  =     Verlet MD run
redata: Initial MD time step             =        1
redata:   Final MD time step             =        1
redata: Length of MD time step           =     1.0000  fs
redata: Initial Temperature of MD run    =     0.0000  K
redata: Perform a MD quench              =     F
redata: ***********************************************************************
Total number of electrons:   266.000000
Total ionic charge:   266.000000

* ProcessorY, Blocksize:    2  24

k-point displ. along   1 input, could be:     0.50    0.00
k-point displ. along   2 input, could be:     0.50    0.00
 Kpoints in:          231 . Kpoints trimmed:          231

siesta: k-grid: Number of k-points =   231
siesta: k-grid: Cutoff (effective) =     5.000 Ang
siesta: k-grid: Supercell and displacements
siesta: k-grid:   21   0   0      0.500
siesta: k-grid:    0  21   0      0.500
siesta: k-grid:    0   0   1      0.000
Naive supercell factors:     2    2    2

superc: Internal auxiliary supercell:     2 x     2 x     2  =       8
superc: Number of atoms, orbitals, and projectors:    576   7488   9216

* Maximum dynamic memory allocated =     4 MB

siesta:                 ==============================
                            Begin MD step =      1
                        ==============================

superc: Internal auxiliary supercell:     2 x     2 x     2  =       8
superc: Number of atoms, orbitals, and projectors:    576   7488   9216

outcell: Unit cell vectors (Ang):
       12.804619    7.392750    0.000000
        0.000000   14.785500    0.000000
        0.000000    0.000000   10.000000

outcell: Cell vector modules (Ang)   :   14.785500   14.785500   10.000000
outcell: Cell angles (23,13,12) (deg):     90.0000     90.0000     60.0000
outcell: Cell volume (Ang**3)        :   1893.2269
New_DM. Step:     1
Initializing Density Matrix...

InitMesh: MESH =   120 x   120 x    90 =     1296000
InitMesh: Mesh cutoff (required, used) =   200.000   223.865 Ry

* Maximum dynamic memory allocated =   231 MB

stepf: Fermi-Dirac step function

siesta: Program's energy decomposition (eV):
siesta: Ebs     =     -5504.873908
siesta: Eions   =     15585.763425
siesta: Ena     =      4195.272365
siesta: Ekin    =      5217.942150
siesta: Enl     =       826.830250
siesta: DEna    =        -0.000007
siesta: DUscf   =         0.000000
siesta: DUext   =         0.000000
siesta: Exc     =     -4201.969990
siesta: eta*DQ  =         0.000000
siesta: Emadel  =         0.000000
siesta: Emeta   =         0.000000
siesta: Emolmec =         0.000000
siesta: Ekinion =         0.000000
siesta: Eharris =     -9321.791822
siesta: Etot    =     -9547.688656
siesta: FreeEng =     -9547.688656

siesta: iscf   Eharris(eV)      E_KS(eV)   FreeEng(eV)   dDmax  Ef(eV)
siesta:    1    -9321.7918    -9547.6887    -9547.6887  7.2376 -8.4169
timer: Routine,Calls,Time,% = IterSCF        1    4487.816  99.74
elaps: Routine,Calls,Wall,% = IterSCF        1     561.661  99.74
siesta:    2   -14520.9150    -8468.1447    -8468.2029 18.8600 -4.5559
siesta:    3    -9324.9456    -9377.7734    -9377.7939  2.2493 -6.2005
siesta:    4    -9264.8460    -9297.9242    -9297.9741  1.5078 -5.5434
siesta:    5    -9209.1533    -9219.8043    -9219.8518  1.3110 -5.2470
siesta:    6    -9184.4854    -9188.6927    -9188.7263  1.1812 -5.0647
siesta:    7    -9169.4506    -9171.4914    -9171.5451  1.0202 -5.1404
siesta:    8    -9165.9393    -9160.9794    -9161.0194  0.9103 -5.1705
siesta:    9    -9163.1249    -9149.9576    -9150.0360  0.6693 -5.1651
siesta:   10    -9162.5171    -9145.7013    -9145.7536  0.6050 -5.1975
siesta:   11    -9163.0419    -9140.4553    -9140.4893  0.4077 -5.1879
siesta:   12    -9161.9973    -9139.4427    -9139.5044  0.9134 -5.1065
siesta:   13    -9162.1529    -9137.2668    -9137.3359  0.4031 -5.0316
siesta:   14    -9161.4674    -9140.5858    -9140.6512  0.2864 -5.0506
siesta:   15    -9161.2198    -9140.6871    -9140.7564  0.2425 -5.0612
siesta:   16    -9160.8954    -9143.2499    -9143.3234  0.3856 -5.0343
siesta:   17    -9160.6540    -9145.3649    -9145.4403  0.2103 -5.0766
siesta:   18    -9160.4982    -9149.8119    -9149.8865  0.1703 -5.1190
siesta:   19    -9160.4873    -9150.8969    -9150.9734  0.1320 -5.1231
siesta:   20    -9160.4520    -9152.0157    -9152.0925  0.1205 -5.1166
siesta:   21    -9160.4542    -9153.4956    -9153.5727  0.1022 -5.1252
siesta:   22    -9160.4282    -9156.0486    -9156.1202  0.0490 -5.1336
siesta:   23    -9160.4187    -9158.0232    -9158.1029  0.0387 -5.1394
siesta:   24    -9160.4124    -9158.5381    -9158.6152  0.0356 -5.1415
siesta:   25    -9160.4087    -9158.8815    -9158.9607  0.0256 -5.1411
siesta:   26    -9160.4062    -9159.4752    -9159.5522  0.0139 -5.1377
siesta:   27    -9160.4055    -9159.7972    -9159.8741  0.0082 -5.1341
siesta:   28    -9160.4044    -9159.9002    -9159.9768  0.0054 -5.1342
siesta:   29    -9160.4044    -9159.9992    -9160.0766  0.0072 -5.1350
siesta:   30    -9160.4042    -9160.1979    -9160.2753  0.0029 -5.1344
siesta:   31    -9160.4043    -9160.3716    -9160.4491  0.0019 -5.1340
siesta:   32    -9160.4044    -9160.4196    -9160.4970  0.0019 -5.1338
siesta:   33    -9160.4044    -9160.4398    -9160.5170  0.0016 -5.1340
siesta:   34    -9160.4044    -9160.4372    -9160.5144  0.0009 -5.1341
siesta:   35    -9160.4043    -9160.4191    -9160.4963  0.0004 -5.1341
siesta:   36    -9160.4043    -9160.4159    -9160.4931  0.0003 -5.1340
siesta:   37    -9160.4043    -9160.4170    -9160.4942  0.0001 -5.1339
siesta:   38    -9160.4043    -9160.4193    -9160.4965  0.0002 -5.1339
siesta:   39    -9160.4043    -9160.4220    -9160.4992  0.0002 -5.1339
siesta:   40    -9160.4043    -9160.4211    -9160.4983  0.0002 -5.1339
siesta:   41    -9160.4043    -9160.4160    -9160.4932  0.0001 -5.1339
siesta:   42    -9160.4043    -9160.4125    -9160.4897  0.0001 -5.1339

siesta: E_KS(eV) =            -9160.4094

siesta: E_KS - E_eggbox =     -9160.4094

siesta: Atomic forces (eV/Ang):
----------------------------------------
   Tot   -0.037220    0.161856    0.000000
----------------------------------------
   Max  561.040776
   Res  143.549398    sqrt( Sum f_i^2 / 3N )
----------------------------------------
   Max  561.040776    constrained

Stress-tensor-Voigt (kbar):     -759.38    -2630.11       -0.66       -9.85        0.00        0.00
(Free)E + p*V (eV/cell)    -7825.1680
Target enthalpy (eV/cell)    -9160.4866

siesta: Stress tensor (static) (eV/Ang**3):
        -0.473963   -0.006145    0.000000
        -0.006145   -1.641568    0.000000
         0.000000    0.000000   -0.000409

siesta: Pressure (static):       1130.04910948  kBar

siesta: Stress tensor (total) (eV/Ang**3):
        -0.473963   -0.006145    0.000000
        -0.006145   -1.641568    0.000000
         0.000000    0.000000   -0.000409

siesta: Pressure (total):       1130.04910948  kBar

siesta: Temp_ion =       0.000 K

* Maximum dynamic memory allocated =   247 MB
Computing bands...

siesta: Program's energy decomposition (eV):
siesta: Ebs     =     -4114.441969
siesta: Eions   =     15585.763425
siesta: Ena     =      4195.272365
siesta: Ekin    =      8065.487688
siesta: Enl     =      -792.079294
siesta: DEna    =      -778.193010
siesta: DUscf   =       105.780798
siesta: DUext   =         0.000000
siesta: Exc     =     -4370.914479
siesta: eta*DQ  =         0.000000
siesta: Emadel  =         0.000000
siesta: Emeta   =         0.000000
siesta: Emolmec =         0.000000
siesta: Ekinion =         0.000000
siesta: Eharris =     -9160.404327
siesta: Etot    =     -9160.409357
siesta: FreeEng =     -9160.486580

siesta: Final energy (eV):
siesta:  Band Struct. =   -4114.441969
siesta:       Kinetic =    8065.487688
siesta:       Hartree =   26271.683362
siesta:    Ext. field =       0.000000
siesta:   Exch.-corr. =   -4370.914479
siesta:  Ion-electron =  -60322.622490
siesta:       Ion-ion =   21195.956562
siesta:       Ekinion =       0.000000
siesta:         Total =   -9160.409357

siesta: Atomic forces (eV/Ang):
siesta:      1   -2.258052  107.261458    0.000000
siesta:      2   17.716841    2.197387    0.000000
siesta:      3   19.266728 -392.195214    0.000000
siesta:      4    2.782897    0.172609    0.000000
siesta:      5   14.430060   -1.861957    0.000000
siesta:      6    4.087050   -3.281519    0.000000
siesta:      7   -1.111545   -1.329755    0.000000
siesta:      8    5.034784   -2.288987    0.000000
siesta:      9   -0.337424    0.774432    0.000000
siesta:     10    6.726250    3.223315    0.000000
siesta:     11    0.915484  411.069090    0.000000
siesta:     12    3.653467    0.458831    0.000000
siesta:     13    1.214445   -4.706238    0.000000
siesta:     14   -0.438654    3.927322    0.000000
siesta:     15   -2.901211   -1.599726    0.000000
siesta:     16   -3.817510    3.077921    0.000000
siesta:     17    3.827683   -3.180603    0.000000
siesta:     18   -0.977718    3.404355    0.000000
siesta:     19  -15.504283    2.183790    0.000000
siesta:     20  -17.558831 -396.216658    0.000000
siesta:     21   -2.955015  107.516425    0.000000
siesta:     22    6.235684 -384.454055    0.000000
siesta:     23    6.945609  549.186231    0.000000
siesta:     24   -8.623911 -131.674137    0.000000
siesta:     25    7.617310  115.735221    0.000000
siesta:     26  -12.289383 -548.627566    0.000000
siesta:     27   11.725668 -544.793181    0.000000
siesta:     28    3.000136   -2.536000    0.000000
siesta:     29    2.595136    1.147779    0.000000
siesta:     30   -0.524668    0.308256    0.000000
siesta:     31  -24.644343    0.665964    0.000000
siesta:     32  -30.598580 -549.422235    0.000000
siesta:     33   18.434910  549.709228    0.000000
siesta:     34    6.239765 -129.555016    0.000000
siesta:     35   30.599784  395.627712    0.000000
siesta:     36   -0.362098   -0.291495    0.000000
siesta:     37  -19.553553  402.823974    0.000000
siesta:     38    1.716333 -123.649352    0.000000
siesta:     39   -0.645894  404.126566    0.000000
siesta:     40    3.124376 -126.795288    0.000000
siesta:     41   31.799807  561.040776    0.000000
siesta:     42   21.376717   -1.578112    0.000000
siesta:     43   -3.971187    2.589023    0.000000
siesta:     44   -0.351111    1.149445    0.000000
siesta:     45   -2.888158    1.944899    0.000000
siesta:     46   -1.002765   -1.012778    0.000000
siesta:     47  -36.628292  550.645074    0.000000
siesta:     48  -26.702894   -4.911961    0.000000
siesta:     49  -26.864327  558.876264    0.000000
siesta:     50  -22.339278   -2.609776    0.000000
siesta:     51    2.208321    1.309612    0.000000
siesta:     52    0.497996    0.302860    0.000000
siesta:     53    2.554729   -1.472181    0.000000
siesta:     54   -2.442300   -1.400429    0.000000
siesta:     55    1.528806   -2.410225    0.000000
siesta:     56    4.168425    3.403584    0.000000
siesta:     57    1.644684    0.277999    0.000000
siesta:     58   -5.870456   -3.677585    0.000000
siesta:     59   -0.597073    4.869483    0.000000
siesta:     60   -0.485590   -4.701552    0.000000
siesta:     61   -6.190120    2.981176    0.000000
siesta:     62    2.144735    0.453004    0.000000
siesta:     63    0.330518    0.289987    0.000000
siesta:     64   -1.141274   -1.858858    0.000000
siesta:     65   -0.364040   -1.437852    0.000000
siesta:     66   -5.947019 -559.522231    0.000000
siesta:     67   21.587342    7.634139    0.000000
siesta:     68   26.774072 -546.081342    0.000000
siesta:     69   -7.293548    2.083743    0.000000
siesta:     70    2.198699    1.808660    0.000000
siesta:     71    0.342323  123.818739    0.000000
siesta:     72   -0.902683 -408.780615    0.000000
siesta: ----------------------------------------
siesta:    Tot   -0.037220    0.161856    0.000000

siesta: Stress tensor (static) (eV/Ang**3):
siesta:    -0.473963   -0.006145    0.000000
siesta:    -0.006145   -1.641568    0.000000
siesta:     0.000000    0.000000   -0.000409

siesta: Cell volume =       1893.226884 Ang**3

siesta: Pressure (static):
siesta:                Solid            Molecule  Units
siesta:           0.00768177          0.10967524  Ry/Bohr**3
siesta:           0.70531355         10.07000740  eV/Ang**3
siesta:        1130.04910948      16134.10494470  kBar
(Free)E+ p_basis*V_orbitals  =       -9122.797988
(Free)Eharris+ p_basis*V_orbitals  =       -9122.789804

siesta: Electric dipole (a.u.)  =    0.000000    0.000000    0.000000
siesta: Electric dipole (Debye) =    0.000000    0.000000    0.000000

* Maximum dynamic memory allocated : Node    0 =   247 MB
* Maximum dynamic memory allocated : Node    1 =    87 MB
* Maximum dynamic memory allocated : Node    2 =    91 MB
* Maximum dynamic memory allocated : Node    3 =   236 MB
* Maximum dynamic memory allocated : Node    4 =   225 MB
* Maximum dynamic memory allocated : Node    5 =    83 MB
* Maximum dynamic memory allocated : Node    6 =    85 MB
* Maximum dynamic memory allocated : Node    7 =   206 MB

* Maximum memory occured during matrixMtoO                    

timer: CPU execution times:
timer:  Routine       Calls   Time/call    Tot.time        %
timer:  siesta            1  185140.290  185140.290   100.00
timer:  Setup             1       3.009       3.009     0.00
timer:  bands             3     269.413     808.238     0.44
timer:  writewave         1       0.017       0.017     0.00
timer:  KSV_init          1       0.003       0.003     0.00
timer:  IterMD            1  184323.181  184323.181    99.56
timer:  hsparse           1       0.396       0.396     0.00
timer:  overlap           1       7.807       7.807     0.00
timer:  IterSCF          42    4382.921  184082.691    99.43
timer:  kinefsm           2       4.047       8.093     0.00
timer:  nlefsm            2      21.821      43.641     0.02
timer:  DHSCF            43     129.273    5558.758     3.00
timer:  DHSCF1            1       1.002       1.002     0.00
timer:  DHSCF2            1      45.983      45.983     0.02
timer:  REORD           346       0.010       3.411     0.00
timer:  POISON           44       2.252      99.108     0.05
timer:  DHSCF3           43     127.111    5465.754     2.95
timer:  rhoofd           43      26.047    1120.042     0.60
timer:  cellXC           43       3.542     152.316     0.08
timer:  vmat             43      62.724    2697.131     1.46
timer:  MolMec            2       0.000       0.000     0.00
timer:  diagon           42    4252.366  178599.357    96.47
timer:  c-eigval       9823       6.684   65655.676    35.46
timer:  c-buildHS      9823       0.124    1213.964     0.66
timer:  cdiag         19525       6.918  135082.533    72.96
timer:  cdiag1        19525       0.429    8374.046     4.52
timer:  cdiag2        19525       1.909   37265.164    20.13
timer:  cdiag3        19525       3.944   77001.708    41.59
timer:  cdiag4        19525       0.224    4374.866     2.36
timer:  c-eigvec       9702       7.337   71183.623    38.45
timer:  c-buildD       9702       4.382   42512.640    22.96
timer:  DHSCF4            1      43.744      43.744     0.02
timer:  dfscf             1      41.055      41.055     0.02
timer:  overfsm           1       0.492       0.492     0.00
timer:  optical           1       5.111       5.111     0.00
  

elaps: ELAPSED times:
elaps:  Routine       Calls   Time/call    Tot.time        %
elaps:  siesta            1   23169.134   23169.134   100.00
elaps:  Setup             1       0.376       0.376     0.00
elaps:  bands             3      33.728     101.183     0.44
elaps:  writewave         1       0.002       0.002     0.00
elaps:  KSV_init          1       0.000       0.000     0.00
elaps:  IterMD            1   23066.900   23066.900    99.56
elaps:  hsparse           1       0.051       0.051     0.00
elaps:  overlap           1       0.976       0.976     0.00
elaps:  IterSCF          42     548.496   23036.817    99.43
elaps:  kinefsm           2       0.504       1.008     0.00
elaps:  nlefsm            2       2.696       5.392     0.02
elaps:  DHSCF            43      16.306     701.164     3.03
elaps:  DHSCF1            1       0.128       0.128     0.00
elaps:  DHSCF2            1       5.749       5.749     0.02
elaps:  REORD           346       0.001       0.461     0.00
elaps:  POISON           44       0.282      12.406     0.05
elaps:  DHSCF3           43      15.902     683.785     2.95
elaps:  rhoofd           43       7.192     309.276     1.33
elaps:  cellXC           43       0.442      19.009     0.08
elaps:  vmat             43       7.846     337.394     1.46
elaps:  MolMec            2       0.000       0.000     0.00
elaps:  diagon           42     532.175   22351.343    96.47
elaps:  c-eigval       9823       0.836    8214.699    35.46
elaps:  c-buildHS      9823       0.017     165.348     0.71
elaps:  cdiag         19525       0.859   16762.707    72.35
elaps:  cdiag1        19525       0.053    1039.248     4.49
elaps:  cdiag2        19525       0.239    4662.749    20.12
elaps:  cdiag3        19525       0.494    9647.498    41.64
elaps:  cdiag4        19525       0.028     553.766     2.39
elaps:  c-eigvec       9702       0.908    8811.328    38.03
elaps:  c-buildD       9702       0.558    5418.522    23.39
elaps:  DHSCF4            1      11.191      11.191     0.05
elaps:  dfscf             1      10.639      10.639     0.05
elaps:  overfsm           1       0.058       0.058     0.00
elaps:  optical           1       0.000       0.000     0.00
  
>> End of run:  25-APR-2016  14:49:37
