Siesta Version:                                        siesta-3.2-pl-3
Architecture  : x86_64-unknown-linux-gnu--unknown
Compiler flags: mpiifort -g -O2 -fPIC -xSSE4.1 -fp-model source -shared-intel 
PARALLEL version

* Running on    8 nodes in parallel
>> Start of run:  28-APR-2016  23:51:54

                           ***********************       
                           *  WELCOME TO SIESTA  *       
                           ***********************       

reinit: Reading from standard input
************************** Dump of input data file ****************************
#(1) General system descriptors
SystemName            GRP_doping    # Descriptive name of the system
SystemLabel           GRP_doping    # Short name for naming files
%include STRUCT.fdf
%include KPT.fdf
%include BASIS.fdf
#%include TS.fdf # for transiesta calculation
#(4) DFT, Grid, SCF
XC.functional         GGA           # LDA or GGA (default = LDA)
XC.authors            PBE           # CA (Ceperley-Aldr) = PZ
                                    #    (Perdew-Zunger) - LDA - Default
                                    # PW92 (Perdew-Wang-92) - LDA
                                    # PBE (Perdew-Burke-Ernzerhof) - GGA
MeshCutoff            200.000000    Ry      # Default: 50.0 Ry ~ 0.444 Bohr
                                    #         100.0 Ry ~ 0.314 Bohr
MaxSCFIterations      500           # Default: 50
DM.MixingWeight       0.05          # Default: 0.25
DM.NumberPulay        10            # Default: 0
DM.PulayOnFile        F             # SystemLabel.P1, SystemLabel.P2
DM.Tolerance          1.d-4         # Default: 1.d-4
DM.UseSaveDM          .true.        # because of the bug
SCFMustConverge       .true.
NeglNonOverlapInt     F             # Default: F
#(5) Eigenvalue problem: order-N or diagonalization
SolutionMethod        Diagon        # or Transiesta
ElectronicTemperature 300.0 K       # Default: 300.0 K
#(6) Molecular dynamics and relaxations
#MD.TypeOfRun          CG            # Type of dynamics:
#MD.VariableCell       F
#MD.NumCGsteps         0           # 0 for single-point / 100 for gopt
#MD.MaxCGDispl         0.2 Bohr      # Default: 0.2 Bohr
#MD.MaxForceTol        0.02 eV/Ang   # Default: 0.04 eV/Ang
#MD.MaxStressTol       1.0 GPa       # Default: 1.0 GPa
# Geometry Constraints
#%block GeometryConstraints
#	position from 1 to 44
#%endblock GeometryConstraints
BandLinesScale   pi/a
%block BandLines
 1   0.00000000  0.00000000  0.00000000
50   0.00000000  0.07809418  0.00000000
50   0.04509075  0.07809242  0.00000000
20   0.00000000  0.00000000  0.00000000
%endblock BandLines
************************** End of input data file *****************************

reinit: -----------------------------------------------------------------------
reinit: System Name: GRP_doping
reinit: -----------------------------------------------------------------------
reinit: System Label: GRP_doping                                                  
reinit: -----------------------------------------------------------------------

initatom: Reading input for the pseudopotentials and atomic orbitals ----------
 Species number:            1  Label: N Atomic number:           7
 Species number:            2  Label: C Atomic number:           6
Ground state valence configuration:   2s02  2p03
Reading pseudopotential information in formatted form from N.psf

Valence configuration for pseudopotential generation:
2s( 2.00) rc: 1.48
2p( 3.00) rc: 1.48
3d( 0.00) rc: 1.48
4f( 0.00) rc: 1.48
Ground state valence configuration:   2s02  2p02
Reading pseudopotential information in formatted form from C.psf

Valence configuration for pseudopotential generation:
2s( 2.00) rc: 1.54
2p( 2.00) rc: 1.54
3d( 0.00) rc: 1.54
4f( 0.00) rc: 1.54
For N, standard SIESTA heuristics set lmxkb to 3
 (one more than the basis l, including polarization orbitals).
Use PS.lmax or PS.KBprojectors blocks to override.
For C, standard SIESTA heuristics set lmxkb to 3
 (one more than the basis l, including polarization orbitals).
Use PS.lmax or PS.KBprojectors blocks to override.

<basis_specs>
===============================================================================
N                    Z=   7    Mass=  14.010        Charge= 0.17977+309
Lmxo=1 Lmxkb= 3    BasisType=split      Semic=F
L=0  Nsemic=0  Cnfigmx=2
          n=1  nzeta=2  polorb=0
            splnorm:   0.15000    
               vcte:    0.0000    
               rinn:    0.0000    
                rcs:    0.0000      0.0000    
            lambdas:    1.0000      1.0000    
L=1  Nsemic=0  Cnfigmx=2
          n=1  nzeta=2  polorb=1
            splnorm:   0.15000    
               vcte:    0.0000    
               rinn:    0.0000    
                rcs:    0.0000      0.0000    
            lambdas:    1.0000      1.0000    
-------------------------------------------------------------------------------
L=0  Nkbl=1  erefs: 0.17977+309
L=1  Nkbl=1  erefs: 0.17977+309
L=2  Nkbl=1  erefs: 0.17977+309
L=3  Nkbl=1  erefs: 0.17977+309
===============================================================================
</basis_specs>

atom: Called for N                     (Z =   7)

read_vps: Pseudopotential generation method:
read_vps: ATM3      Troullier-Martins                       
Total valence charge:    5.00000

read_vps: Pseudopotential includes a core correction:
read_vps: Pseudo-core for xc-correction

xc_check: Exchange-correlation functional:
xc_check: GGA Perdew, Burke & Ernzerhof 1996
V l=0 = -2*Zval/r beyond r=  1.4606
V l=1 = -2*Zval/r beyond r=  1.4606
V l=2 = -2*Zval/r beyond r=  1.4606
V l=3 = -2*Zval/r beyond r=  1.4606
All V_l potentials equal beyond r=  1.4606
This should be close to max(r_c) in ps generation
All pots = -2*Zval/r beyond r=  1.4606

VLOCAL1: 99.0% of the norm of Vloc inside     20.347 Ry
VLOCAL1: 99.9% of the norm of Vloc inside     46.372 Ry
atom: Maximum radius for 4*pi*r*r*local-pseudopot. charge    1.76189
atom: Maximum radius for r*vlocal+2*Zval:    1.53550
GHOST: No ghost state for L =  0
GHOST: No ghost state for L =  1
GHOST: No ghost state for L =  2
GHOST: No ghost state for L =  3

KBgen: Kleinman-Bylander projectors: 
   l= 0   rc=  1.634559   el= -1.363963   Ekb=  5.296955   kbcos=  0.335621
   l= 1   rc=  1.614250   el= -0.521451   Ekb= -5.259161   kbcos= -0.433408
   l= 2   rc=  1.718383   el=  0.001991   Ekb= -1.271464   kbcos= -0.007566
   l= 3   rc=  1.761893   el=  0.003093   Ekb= -0.494769   kbcos= -0.001015

KBgen: Total number of  Kleinman-Bylander projectors:   16
atom: -------------------------------------------------------------------------

atom: SANKEY-TYPE ORBITALS:
atom: Selected multiple-zeta basis: split     

SPLIT: Orbitals with angular momentum L= 0

SPLIT: Basis orbitals for state 2s

SPLIT: PAO cut-off radius determined from an
SPLIT: energy shift=  0.007350 Ry

   izeta = 1
                 lambda =    1.000000
                     rc =    4.071465
                 energy =   -1.356470
                kinetic =    1.176977
    potential(screened) =   -2.533447
       potential(ionic) =   -8.057990

   izeta = 2
                 rmatch =    2.905100
              splitnorm =    0.150000
                 energy =   -1.158343
                kinetic =    1.813009
    potential(screened) =   -2.971352
       potential(ionic) =   -8.901931

SPLIT: Orbitals with angular momentum L= 1

SPLIT: Basis orbitals for state 2p

SPLIT: PAO cut-off radius determined from an
SPLIT: energy shift=  0.007350 Ry

   izeta = 1
                 lambda =    1.000000
                     rc =    4.972977
                 energy =   -0.513884
                kinetic =    3.441732
    potential(screened) =   -3.955616
       potential(ionic) =   -9.287901

   izeta = 2
                 rmatch =    3.054066
              splitnorm =    0.150000
                 energy =   -0.318226
                kinetic =    5.125348
    potential(screened) =   -5.443573
       potential(ionic) =  -11.380999

POLgen: Perturbative polarization orbital with L=  2

POLgen: Polarization orbital for state 2p

   izeta = 1
                     rc =    4.972977
                 energy =    1.607437
                kinetic =    3.268125
    potential(screened) =   -1.660688
       potential(ionic) =   -5.973652
atom: Total number of Sankey-type orbitals: 13

atm_pop: Valence configuration (for local Pseudopot. screening):
 2s( 2.00)                                                            
 2p( 3.00)                                                            
Vna: chval, zval:    5.00000   5.00000

Vna:  Cut-off radius for the neutral-atom potential:   4.972977
comcore: Pseudo-core radius Rcore=  1.554824

atom: _________________________________________________________________________

<basis_specs>
===============================================================================
C                    Z=   6    Mass=  12.010        Charge= 0.17977+309
Lmxo=1 Lmxkb= 3    BasisType=split      Semic=F
L=0  Nsemic=0  Cnfigmx=2
          n=1  nzeta=2  polorb=0
            splnorm:   0.15000    
               vcte:    0.0000    
               rinn:    0.0000    
                rcs:    0.0000      0.0000    
            lambdas:    1.0000      1.0000    
L=1  Nsemic=0  Cnfigmx=2
          n=1  nzeta=2  polorb=1
            splnorm:   0.15000    
               vcte:    0.0000    
               rinn:    0.0000    
                rcs:    0.0000      0.0000    
            lambdas:    1.0000      1.0000    
-------------------------------------------------------------------------------
L=0  Nkbl=1  erefs: 0.17977+309
L=1  Nkbl=1  erefs: 0.17977+309
L=2  Nkbl=1  erefs: 0.17977+309
L=3  Nkbl=1  erefs: 0.17977+309
===============================================================================
</basis_specs>

atom: Called for C                     (Z =   6)

read_vps: Pseudopotential generation method:
read_vps: ATM3      Troullier-Martins                       
Total valence charge:    4.00000

read_vps: Pseudopotential includes a core correction:
read_vps: Pseudo-core for xc-correction

xc_check: Exchange-correlation functional:
xc_check: GGA Perdew, Burke & Ernzerhof 1996
V l=0 = -2*Zval/r beyond r=  1.5227
V l=1 = -2*Zval/r beyond r=  1.5227
V l=2 = -2*Zval/r beyond r=  1.5227
V l=3 = -2*Zval/r beyond r=  1.5038
All V_l potentials equal beyond r=  1.5227
This should be close to max(r_c) in ps generation
All pots = -2*Zval/r beyond r=  1.5227

VLOCAL1: 99.0% of the norm of Vloc inside     18.722 Ry
VLOCAL1: 99.9% of the norm of Vloc inside     42.668 Ry
atom: Maximum radius for 4*pi*r*r*local-pseudopot. charge    1.83678
atom: Maximum radius for r*vlocal+2*Zval:    1.58088
GHOST: No ghost state for L =  0
GHOST: No ghost state for L =  1
GHOST: No ghost state for L =  2
GHOST: No ghost state for L =  3

KBgen: Kleinman-Bylander projectors: 
   l= 0   rc=  1.704034   el= -1.009801   Ekb=  5.335044   kbcos=  0.316824
   l= 1   rc=  1.704034   el= -0.388707   Ekb= -3.785862   kbcos= -0.366464
   l= 2   rc=  1.791422   el=  0.001971   Ekb= -0.970471   kbcos= -0.009212
   l= 3   rc=  1.859892   el=  0.003065   Ekb= -0.399525   kbcos= -0.001223

KBgen: Total number of  Kleinman-Bylander projectors:   16
atom: -------------------------------------------------------------------------

atom: SANKEY-TYPE ORBITALS:
atom: Selected multiple-zeta basis: split     

SPLIT: Orbitals with angular momentum L= 0

SPLIT: Basis orbitals for state 2s

SPLIT: PAO cut-off radius determined from an
SPLIT: energy shift=  0.007350 Ry

   izeta = 1
                 lambda =    1.000000
                     rc =    4.632753
                 energy =   -1.002270
                kinetic =    0.855760
    potential(screened) =   -1.858031
       potential(ionic) =   -5.417575

   izeta = 2
                 rmatch =    3.431921
              splitnorm =    0.150000
                 energy =   -0.867111
                kinetic =    1.300804
    potential(screened) =   -2.167915
       potential(ionic) =   -5.962684

SPLIT: Orbitals with angular momentum L= 1

SPLIT: Basis orbitals for state 2p

SPLIT: PAO cut-off radius determined from an
SPLIT: energy shift=  0.007350 Ry

   izeta = 1
                 lambda =    1.000000
                     rc =    5.658549
                 energy =   -0.381140
                kinetic =    2.399701
    potential(screened) =   -2.780841
       potential(ionic) =   -6.206085

   izeta = 2
                 rmatch =    3.653288
              splitnorm =    0.150000
                 energy =   -0.249149
                kinetic =    3.542762
    potential(screened) =   -3.791911
       potential(ionic) =   -7.581078

POLgen: Perturbative polarization orbital with L=  2

POLgen: Polarization orbital for state 2p

   izeta = 1
                     rc =    5.658549
                 energy =    1.109913
                kinetic =    2.304789
    potential(screened) =   -1.194876
       potential(ionic) =   -4.013592
atom: Total number of Sankey-type orbitals: 13

atm_pop: Valence configuration (for local Pseudopot. screening):
 2s( 2.00)                                                            
 2p( 2.00)                                                            
Vna: chval, zval:    4.00000   4.00000

Vna:  Cut-off radius for the neutral-atom potential:   5.658549
comcore: Pseudo-core radius Rcore=  1.791422

atom: _________________________________________________________________________

prinput: Basis input ----------------------------------------------------------

PAO.BasisType split     

%block ChemicalSpeciesLabel
    1    7 N                       # Species index, atomic number, species label
    2    6 C                       # Species index, atomic number, species label
%endblock ChemicalSpeciesLabel

%block PAO.Basis                 # Define Basis set
N                     2                    # Species label, number of l-shells
 n=2   0   2                         # n, l, Nzeta 
   4.071      2.905   
   1.000      1.000   
 n=2   1   2 P   1                   # n, l, Nzeta, Polarization, NzetaPol
   4.973      3.054   
   1.000      1.000   
C                     2                    # Species label, number of l-shells
 n=2   0   2                         # n, l, Nzeta 
   4.633      3.432   
   1.000      1.000   
 n=2   1   2 P   1                   # n, l, Nzeta, Polarization, NzetaPol
   5.659      3.653   
   1.000      1.000   
%endblock PAO.Basis

prinput: ----------------------------------------------------------------------

coor:   Atomic-coordinates input format  =     Fractional

siesta: Atomic coordinates (Bohr) and species
siesta:     -0.02582   2.59549   0.00000  1        1
siesta:     -0.02582   5.28395   0.00000  1        2
siesta:     -0.02582  10.66124   0.00000  1        3
siesta:     -0.02582  13.34970   0.00000  1        4
siesta:     -0.02582  18.72698   0.00000  1        5
siesta:     -0.02582  21.41544   0.00000  1        6
siesta:      2.30256  22.75985   0.00000  1        7
siesta:      2.30256  25.44831   0.00000  1        8
siesta:     -4.68258  21.41544   0.00000  1        9
siesta:     -2.35420  22.75985   0.00000  1       10
siesta:     -2.35420  25.44831   0.00000  1       11
siesta:     -9.33934  21.41544   0.00000  1       12
siesta:     -7.01096  22.75985   0.00000  1       13
siesta:     -7.01096  25.44831   0.00000  1       14
siesta:    -11.66772  22.75985   0.00000  1       15
siesta:    -11.66772  25.44831   0.00000  1       16
siesta:     -9.33934  26.79272   0.00000  1       17
siesta:     -0.02582  26.79272   0.00000  1       18
siesta:     -4.68258  26.79272   0.00000  1       19
siesta:     -0.02582  45.61267   0.00000  1       20
siesta:     -2.35420  38.89134   0.00000  2       21
siesta:     -2.35420  41.57980   0.00000  2       22
siesta:      2.30256  38.89134   0.00000  2       23
siesta:      2.30256  41.57980   0.00000  2       24
siesta:      4.63094  34.85847   0.00000  2       25
siesta:      4.63094  37.54693   0.00000  2       26
siesta:      6.95932  30.82560   0.00000  2       27
siesta:      6.95932  33.51406   0.00000  2       28
siesta:      9.28770  26.79272   0.00000  2       29
siesta:      9.28770  29.48119   0.00000  2       30
siesta:     -4.68258  34.85847   0.00000  2       31
siesta:     -4.68258  37.54693   0.00000  2       32
siesta:      2.30256   6.62836   0.00000  2       33
siesta:      2.30256   9.31683   0.00000  2       34
siesta:      4.63094  10.66124   0.00000  2       35
siesta:      4.63094  13.34970   0.00000  2       36
siesta:      6.95932  14.69411   0.00000  2       37
siesta:      6.95932  17.38257   0.00000  2       38
siesta:      9.28770  18.72698   0.00000  2       39
siesta:      9.28770  21.41544   0.00000  2       40
siesta:     11.61608  22.75985   0.00000  2       41
siesta:     11.61608  25.44831   0.00000  2       42
siesta:     -2.35420   6.62836   0.00000  2       43
siesta:     -2.35420   9.31683   0.00000  2       44
siesta:      2.30256  14.69411   0.00000  2       45
siesta:      2.30256  17.38257   0.00000  2       46
siesta:      4.63094  18.72698   0.00000  2       47
siesta:      4.63094  21.41544   0.00000  2       48
siesta:      6.95932  22.75985   0.00000  2       49
siesta:      6.95932  25.44831   0.00000  2       50
siesta:     -4.68258  10.66124   0.00000  2       51
siesta:     -4.68258  13.34970   0.00000  2       52
siesta:     -2.35420  14.69411   0.00000  2       53
siesta:     -2.35420  17.38257   0.00000  2       54
siesta:     -7.01096  14.69411   0.00000  2       55
siesta:     -7.01096  17.38257   0.00000  2       56
siesta:     -4.68258  18.72698   0.00000  2       57
siesta:     -9.33934  18.72698   0.00000  2       58
siesta:     -9.33934  29.48119   0.00000  2       59
siesta:      4.63094  26.79272   0.00000  2       60
siesta:      4.63094  29.48119   0.00000  2       61
siesta:     -0.02582  29.48119   0.00000  2       62
siesta:     -4.68258  29.48119   0.00000  2       63
siesta:      2.30256  30.82560   0.00000  2       64
siesta:      2.30256  33.51406   0.00000  2       65
siesta:     -2.35420  30.82560   0.00000  2       66
siesta:     -2.35420  33.51406   0.00000  2       67
siesta:     -7.01096  30.82560   0.00000  2       68
siesta:     -7.01096  33.51406   0.00000  2       69
siesta:     -0.02582  34.85847   0.00000  2       70
siesta:     -0.02582  37.54693   0.00000  2       71
siesta:     -0.02582  42.92421   0.00000  2       72

siesta: System type = slab      

initatomlists: Number of atoms, orbitals, and projectors:     72   936  1152

siesta: ******************** Simulation parameters ****************************
siesta:
siesta: The following are some of the parameters of the simulation.
siesta: A complete list of the parameters used, including default values,
siesta: can be found in file out.fdf
siesta:
redata: Non-Collinear-spin run           =     F
redata: SpinPolarized (Up/Down) run      =     F
redata: Number of spin components        =     1
redata: Long output                      =     F
redata: Number of Atomic Species         =        2
redata: Charge density info will appear in .RHO file
redata: Write Mulliken Pop.              =     NO
redata: Mesh Cutoff                      =   200.0000  Ry
redata: Net charge of the system         =     0.0000 |e|
redata: Max. number of SCF Iter          =      500
redata: SCF convergence failure will abort job
redata: Performing Pulay mixing using    =    10 iterations
redata: Mix DM in first SCF step ?       =     F
redata: Write Pulay info on disk?        =     F
redata: Discard 1st Pulay DM after  kick =     F
redata: New DM Mixing Weight             =     0.0500
redata: New DM Occupancy tolerance       = 0.000000000001
redata: No kicks to SCF
redata: DM Mixing Weight for Kicks       =     0.5000
redata: DM Tolerance for SCF             =     0.000100
redata: Require Energy convergence for SCF =     F
redata: DM Energy tolerance for SCF      =     0.000100 eV
redata: Require Harris convergence for SCF =     F
redata: DM Harris energy tolerance for SCF =     0.000100 eV
redata: Using Saved Data (generic)   =     F
redata: Use continuation files for DM    =     T
redata: Neglect nonoverlap interactions  =     F
redata: Method of Calculation            =     Diagonalization
redata: Divide and Conquer               =     T
redata: Electronic Temperature           =     0.0019  Ry
redata: Fix the spin of the system       =     F
redata: Dynamics option                  =     Verlet MD run
redata: Initial MD time step             =        1
redata:   Final MD time step             =        1
redata: Length of MD time step           =     1.0000  fs
redata: Initial Temperature of MD run    =     0.0000  K
redata: Perform a MD quench              =     F
redata: ***********************************************************************
Total number of electrons:   308.000000
Total ionic charge:   308.000000

* ProcessorY, Blocksize:    2  24

k-point displ. along   1 input, could be:     0.50    0.00
k-point displ. along   2 input, could be:     0.50    0.00
 Kpoints in:          231 . Kpoints trimmed:          231

siesta: k-grid: Number of k-points =   231
siesta: k-grid: Cutoff (effective) =     5.000 Ang
siesta: k-grid: Supercell and displacements
siesta: k-grid:   21   0   0      0.500
siesta: k-grid:    0  21   0      0.500
siesta: k-grid:    0   0   1      0.000
Naive supercell factors:     2    2    2

superc: Internal auxiliary supercell:     2 x     2 x     2  =       8
superc: Number of atoms, orbitals, and projectors:    576   7488   9216

* Maximum dynamic memory allocated =     4 MB

siesta:                 ==============================
                            Begin MD step =      1
                        ==============================

superc: Internal auxiliary supercell:     2 x     2 x     2  =       8
superc: Number of atoms, orbitals, and projectors:    576   7488   9216

outcell: Unit cell vectors (Ang):
       12.804619    7.392750    0.000000
        0.000000   14.785500    0.000000
        0.000000    0.000000   10.000000

outcell: Cell vector modules (Ang)   :   14.785500   14.785500   10.000000
outcell: Cell angles (23,13,12) (deg):     90.0000     90.0000     60.0000
outcell: Cell volume (Ang**3)        :   1893.2269
New_DM. Step:     1
Initializing Density Matrix...

InitMesh: MESH =   120 x   120 x    90 =     1296000
InitMesh: Mesh cutoff (required, used) =   200.000   223.865 Ry

* Maximum dynamic memory allocated =   185 MB

stepf: Fermi-Dirac step function

siesta: Program's energy decomposition (eV):
siesta: Ebs     =     -6265.885171
siesta: Eions   =     21617.947954
siesta: Ena     =      4931.035478
siesta: Ekin    =      8056.630787
siesta: Enl     =        48.198990
siesta: DEna    =        -0.000015
siesta: DUscf   =         0.000000
siesta: DUext   =         0.000000
siesta: Exc     =     -4673.169416
siesta: eta*DQ  =         0.000000
siesta: Emadel  =         0.000000
siesta: Emeta   =         0.000000
siesta: Emolmec =         0.000000
siesta: Ekinion =         0.000000
siesta: Eharris =    -12875.782851
siesta: Etot    =    -13255.252130
siesta: FreeEng =    -13255.252130

siesta: iscf   Eharris(eV)      E_KS(eV)   FreeEng(eV)   dDmax  Ef(eV)
siesta:    1   -12875.7829   -13255.2521   -13255.2521  8.6125 -6.7047
timer: Routine,Calls,Time,% = IterSCF        1    4177.213  99.73
elaps: Routine,Calls,Wall,% = IterSCF        1     522.746  99.73
siesta:    2   -19666.9732   -12034.2404   -12034.2539 21.9005 -7.3206
siesta:    3   -12788.2940   -13106.1718   -13106.1847  4.1956 -5.8274
siesta:    4   -12770.2830   -12904.6923   -12904.7602  1.5903 -4.6734
siesta:    5   -12717.0948   -12792.4104   -12792.4647  1.0133 -3.8554
siesta:    6   -12710.7335   -12769.8548   -12769.8812  0.9994 -3.7622
siesta:    7   -12708.7604   -12761.0947   -12761.1503  0.9340 -3.7754
siesta:    8   -12704.9734   -12735.3735   -12735.4441  0.7180 -3.8570
siesta:    9   -12705.0333   -12699.9402   -12699.9857  0.5184 -3.8876
siesta:   10   -12703.6628   -12696.2368   -12696.2883  0.3338 -3.9031
siesta:   11   -12703.4100   -12688.3376   -12688.3828  0.3374 -3.7956
siesta:   12   -12703.4335   -12679.6181   -12679.6679  0.2954 -3.7344
siesta:   13   -12703.2116   -12675.5392   -12675.6012  0.1772 -3.7693
siesta:   14   -12702.7826   -12679.9067   -12679.9529  0.1911 -3.7761
siesta:   15   -12702.6322   -12682.9590   -12683.0120  0.0922 -3.8635
siesta:   16   -12702.5515   -12687.0445   -12687.0886  0.1124 -3.8685
siesta:   17   -12702.4727   -12689.9950   -12690.0406  0.0463 -3.8713
siesta:   18   -12702.4619   -12692.5501   -12692.6008  0.0288 -3.8640
siesta:   19   -12702.4541   -12696.6361   -12696.6886  0.0237 -3.8566
siesta:   20   -12702.4453   -12699.3243   -12699.3767  0.0222 -3.8581
siesta:   21   -12702.4424   -12700.0658   -12700.1196  0.0119 -3.8605
siesta:   22   -12702.4412   -12700.6895   -12700.7421  0.0185 -3.8648
siesta:   23   -12702.4405   -12701.6985   -12701.7506  0.0073 -3.8613
siesta:   24   -12702.4403   -12702.2545   -12702.3064  0.0049 -3.8568
siesta:   25   -12702.4397   -12702.3850   -12702.4371  0.0037 -3.8551
siesta:   26   -12702.4396   -12702.3461   -12702.3985  0.0021 -3.8551
siesta:   27   -12702.4397   -12702.3869   -12702.4392  0.0018 -3.8556
siesta:   28   -12702.4397   -12702.4116   -12702.4639  0.0011 -3.8555
siesta:   29   -12702.4397   -12702.3883   -12702.4405  0.0009 -3.8555
siesta:   30   -12702.4397   -12702.3711   -12702.4233  0.0005 -3.8554
siesta:   31   -12702.4396   -12702.4398   -12702.4921  0.0005 -3.8554
siesta:   32   -12702.4396   -12702.4660   -12702.5182  0.0004 -3.8555
siesta:   33   -12702.4396   -12702.4642   -12702.5165  0.0006 -3.8556
siesta:   34   -12702.4396   -12702.4602   -12702.5125  0.0002 -3.8556
siesta:   35   -12702.4396   -12702.4487   -12702.5010  0.0001 -3.8556
siesta:   36   -12702.4396   -12702.4443   -12702.4966  0.0001 -3.8556
siesta:   37   -12702.4396   -12702.4451   -12702.4974  0.0001 -3.8556

siesta: E_KS(eV) =           -12702.4410

siesta: E_KS - E_eggbox =    -12702.4410

siesta: Atomic forces (eV/Ang):
----------------------------------------
   Tot   -0.319615    0.164258    0.000000
----------------------------------------
   Max  774.488783
   Res  176.707856    sqrt( Sum f_i^2 / 3N )
----------------------------------------
   Max  774.488783    constrained

Stress-tensor-Voigt (kbar):     -663.82    -3142.42       -0.07        0.63        0.00        0.00
(Free)E + p*V (eV/cell)   -11203.2537
Target enthalpy (eV/cell)   -12702.4933

siesta: Stress tensor (static) (eV/Ang**3):
        -0.414321    0.000393    0.000000
         0.000393   -1.961323    0.000000
         0.000000    0.000000   -0.000046

siesta: Pressure (static):       1268.77165102  kBar

siesta: Stress tensor (total) (eV/Ang**3):
        -0.414321    0.000393    0.000000
         0.000393   -1.961323    0.000000
         0.000000    0.000000   -0.000046

siesta: Pressure (total):       1268.77165102  kBar

siesta: Temp_ion =       0.000 K

* Maximum dynamic memory allocated =   201 MB
Computing bands...

siesta: Program's energy decomposition (eV):
siesta: Ebs     =     -5076.252304
siesta: Eions   =     21617.947954
siesta: Ena     =      4931.035478
siesta: Ekin    =     11155.520428
siesta: Enl     =     -1658.675377
siesta: DEna    =      -778.200133
siesta: DUscf   =       109.195775
siesta: DUext   =         0.000000
siesta: Exc     =     -4843.369206
siesta: eta*DQ  =         0.000000
siesta: Emadel  =         0.000000
siesta: Emeta   =         0.000000
siesta: Emolmec =         0.000000
siesta: Ekinion =         0.000000
siesta: Eharris =    -12702.439612
siesta: Etot    =    -12702.440991
siesta: FreeEng =    -12702.493269

siesta: Final energy (eV):
siesta:  Band Struct. =   -5076.252304
siesta:       Kinetic =   11155.520428
siesta:       Hartree =   35801.295471
siesta:    Ext. field =       0.000000
siesta:   Exch.-corr. =   -4843.369206
siesta:  Ion-electron =  -82325.574132
siesta:       Ion-ion =   27509.686449
siesta:       Ekinion =       0.000000
siesta:         Total =  -12702.440991

siesta: Atomic forces (eV/Ang):
siesta:      1   -1.572870  647.250063    0.000000
siesta:      2   -0.616810 -111.724525    0.000000
siesta:      3   -0.703997  652.570942    0.000000
siesta:      4   -0.004042 -110.871874    0.000000
siesta:      5    0.265613  774.488783    0.000000
siesta:      6    0.531024    4.198979    0.000000
siesta:      7    1.006083    0.955372    0.000000
siesta:      8    1.607243    1.071157    0.000000
siesta:      9    0.253813   -1.479995    0.000000
siesta:     10   -2.358335    0.595230    0.000000
siesta:     11   -2.801076    0.370351    0.000000
siesta:     12   -1.355821   -3.304371    0.000000
siesta:     13    1.567530    1.575177    0.000000
siesta:     14    1.305911   -1.393585    0.000000
siesta:     15    1.535258    3.056620    0.000000
siesta:     16    1.535472   -3.044581    0.000000
siesta:     17   -1.219275    3.061187    0.000000
siesta:     18    0.714400    3.454753    0.000000
siesta:     19   -0.287748    2.336598    0.000000
siesta:     20    1.619165 -753.415456    0.000000
siesta:     21    1.130344  123.898479    0.000000
siesta:     22   -1.917472 -548.620896    0.000000
siesta:     23   -0.826059  123.604297    0.000000
siesta:     24    0.112524 -548.655013    0.000000
siesta:     25   25.640356    6.464182    0.000000
siesta:     26   32.004880 -549.876390    0.000000
siesta:     27    2.650818    0.377077    0.000000
siesta:     28   -3.014065    1.795419    0.000000
siesta:     29    1.837008    2.119825    0.000000
siesta:     30   -1.721214    0.200877    0.000000
siesta:     31  -25.763887    7.254156    0.000000
siesta:     32  -32.257895 -550.122435    0.000000
siesta:     33   19.572151  552.950917    0.000000
siesta:     34    0.422030 -130.073164    0.000000
siesta:     35   33.237784  551.335967    0.000000
siesta:     36   26.831973   -5.839558    0.000000
siesta:     37   -3.134364   -1.696600    0.000000
siesta:     38    2.616017   -0.130284    0.000000
siesta:     39   -1.677762   -0.331594    0.000000
siesta:     40    2.019272   -2.184130    0.000000
siesta:     41   -0.246465    7.363768    0.000000
siesta:     42   -0.249489   -7.343737    0.000000
siesta:     43  -20.772747  553.704449    0.000000
siesta:     44    0.047090 -130.586539    0.000000
siesta:     45   22.587174  563.277844    0.000000
siesta:     46   28.922209   -8.385759    0.000000
siesta:     47   -1.555380    4.021406    0.000000
siesta:     48   -0.631981   -0.652888    0.000000
siesta:     49   -0.325168    1.054370    0.000000
siesta:     50   -0.277291   -1.019676    0.000000
siesta:     51  -33.343900  551.423867    0.000000
siesta:     52  -26.637529   -6.592230    0.000000
siesta:     53  -21.323548  563.399531    0.000000
siesta:     54  -30.020644   -7.545986    0.000000
siesta:     55    2.592469   -0.944294    0.000000
siesta:     56   -1.295398    0.371575    0.000000
siesta:     57    1.172156    3.237062    0.000000
siesta:     58   -0.987392    2.498737    0.000000
siesta:     59   -0.825604   -2.526719    0.000000
siesta:     60   -0.493982    0.915814    0.000000
siesta:     61   -2.003102   -4.315441    0.000000
siesta:     62    3.009939 -687.713421    0.000000
siesta:     63    1.990737   -3.573255    0.000000
siesta:     64   24.045188    4.428278    0.000000
siesta:     65    4.780253 -558.388370    0.000000
siesta:     66  -25.001488    4.076921    0.000000
siesta:     67   -3.540344 -558.512323    0.000000
siesta:     68   -1.171277   -0.126652    0.000000
siesta:     69    2.453642    1.002512    0.000000
siesta:     70    0.077899  125.363277    0.000000
siesta:     71    0.074109 -665.409474    0.000000
siesta:     72   -0.153724  115.439656    0.000000
siesta: ----------------------------------------
siesta:    Tot   -0.319615    0.164258    0.000000

siesta: Stress tensor (static) (eV/Ang**3):
siesta:    -0.414321    0.000393    0.000000
siesta:     0.000393   -1.961323    0.000000
siesta:     0.000000    0.000000   -0.000046

siesta: Cell volume =       1893.226884 Ang**3

siesta: Pressure (static):
siesta:                Solid            Molecule  Units
siesta:           0.00862476          0.13923703  Ry/Bohr**3
siesta:           0.79189642         12.78427098  eV/Ang**3
siesta:        1268.77165102      20482.88164312  kBar
(Free)E+ p_basis*V_orbitals  =      -12674.614923
(Free)Eharris+ p_basis*V_orbitals  =      -12674.609450

siesta: Electric dipole (a.u.)  =    0.000000    0.000000    0.000000
siesta: Electric dipole (Debye) =    0.000000    0.000000    0.000000

* Maximum dynamic memory allocated : Node    0 =   201 MB
* Maximum dynamic memory allocated : Node    1 =    72 MB
* Maximum dynamic memory allocated : Node    2 =    74 MB
* Maximum dynamic memory allocated : Node    3 =   192 MB
* Maximum dynamic memory allocated : Node    4 =   185 MB
* Maximum dynamic memory allocated : Node    5 =    70 MB
* Maximum dynamic memory allocated : Node    6 =    71 MB
* Maximum dynamic memory allocated : Node    7 =   169 MB

* Maximum memory occured during matrixMtoO                    

timer: CPU execution times:
timer:  Routine       Calls   Time/call    Tot.time        %
timer:  siesta            1  152162.248  152162.248   100.00
timer:  Setup             1       3.049       3.049     0.00
timer:  bands             3     269.486     808.457     0.53
timer:  writewave         1       0.016       0.016     0.00
timer:  KSV_init          1       0.003       0.003     0.00
timer:  IterMD            1  151344.884  151344.884    99.46
timer:  hsparse           1       0.232       0.232     0.00
timer:  overlap           1       7.706       7.706     0.01
timer:  IterSCF          37    4085.909  151178.638    99.35
timer:  kinefsm           2       3.987       7.973     0.01
timer:  nlefsm            2      18.546      37.093     0.02
timer:  DHSCF            38      90.889    3453.790     2.27
timer:  DHSCF1            1       0.760       0.760     0.00
timer:  DHSCF2            1      33.256      33.256     0.02
timer:  REORD           306       0.010       3.024     0.00
timer:  POISON           39       2.245      87.564     0.06
timer:  DHSCF3           38      89.156    3387.942     2.23
timer:  rhoofd           38      17.165     652.271     0.43
timer:  cellXC           38       3.511     133.420     0.09
timer:  vmat             38      40.845    1552.108     1.02
timer:  MolMec            2       0.000       0.000     0.00
timer:  diagon           37    3993.581  147762.495    97.11
timer:  c-eigval       8668       6.680   57900.138    38.05
timer:  c-buildHS      8668       0.112     967.570     0.64
timer:  cdiag         17215       6.895  118694.698    78.01
timer:  cdiag1        17215       0.429    7377.431     4.85
timer:  cdiag2        17215       1.913   32927.987    21.64
timer:  cdiag3        17215       3.950   67993.996    44.69
timer:  cdiag4        17215       0.204    3505.751     2.30
timer:  c-eigvec       8547       7.279   62211.459    40.88
timer:  c-buildD       8547       3.324   28413.321    18.67
timer:  DHSCF4            1      29.820      29.820     0.02
timer:  dfscf             1      28.004      28.004     0.02
timer:  overfsm           1       0.396       0.396     0.00
timer:  optical           1       5.121       5.121     0.00
  

elaps: ELAPSED times:
elaps:  Routine       Calls   Time/call    Tot.time        %
elaps:  siesta            1   19040.471   19040.471   100.00
elaps:  Setup             1       0.379       0.379     0.00
elaps:  bands             3      33.736     101.209     0.53
elaps:  writewave         1       0.002       0.002     0.00
elaps:  KSV_init          1       0.000       0.000     0.00
elaps:  IterMD            1   18938.206   18938.206    99.46
elaps:  hsparse           1       0.029       0.029     0.00
elaps:  overlap           1       0.965       0.965     0.01
elaps:  IterSCF          37     511.281   18917.412    99.35
elaps:  kinefsm           2       0.496       0.992     0.01
elaps:  nlefsm            2       2.390       4.780     0.03
elaps:  DHSCF            38      11.478     436.164     2.29
elaps:  DHSCF1            1       0.104       0.104     0.00
elaps:  DHSCF2            1       4.153       4.153     0.02
elaps:  REORD           306       0.001       0.419     0.00
elaps:  POISON           39       0.280      10.935     0.06
elaps:  DHSCF3           38      11.154     423.859     2.23
elaps:  rhoofd           38       4.698     178.531     0.94
elaps:  cellXC           38       0.438      16.662     0.09
elaps:  vmat             38       5.110     194.161     1.02
elaps:  MolMec            2       0.000       0.000     0.00
elaps:  diagon           37     499.725   18489.835    97.11
elaps:  c-eigval       8668       0.836    7244.263    38.05
elaps:  c-buildHS      8668       0.015     134.072     0.70
elaps:  cdiag         17215       0.865   14889.901    78.20
elaps:  cdiag1        17215       0.053     909.426     4.78
elaps:  cdiag2        17215       0.239    4120.130    21.64
elaps:  cdiag3        17215       0.495    8518.773    44.74
elaps:  cdiag4        17215       0.026     449.977     2.36
elaps:  c-eigvec       8547       0.919    7851.455    41.24
elaps:  c-buildD       8547       0.408    3488.719    18.32
elaps:  DHSCF4            1       7.776       7.776     0.04
elaps:  dfscf             1       7.376       7.376     0.04
elaps:  overfsm           1       0.050       0.050     0.00
elaps:  optical           1       0.000       0.000     0.00
  
>> End of run:  29-APR-2016   5:09:15
