Siesta Version:                                        siesta-3.2-pl-3
Architecture  : x86_64-unknown-linux-gnu--unknown
Compiler flags: mpiifort -g -O2 -fPIC -xSSE4.1 -fp-model source -shared-intel 
PARALLEL version

* Running on   12 nodes in parallel
>> Start of run:   6-APR-2016  14:03:57

                           ***********************       
                           *  WELCOME TO SIESTA  *       
                           ***********************       

reinit: Reading from standard input
************************** Dump of input data file ****************************
#(1) General system descriptors
SystemName            GRP_doping    # Descriptive name of the system
SystemLabel           GRP_doping    # Short name for naming files
%include STRUCT.fdf
%include KPT.fdf
%include BASIS.fdf
#%include TS.fdf # for transiesta calculation
#(4) DFT, Grid, SCF
XC.functional         GGA           # LDA or GGA (default = LDA)
XC.authors            PBE           # CA (Ceperley-Aldr) = PZ
                                    #    (Perdew-Zunger) - LDA - Default
                                    # PW92 (Perdew-Wang-92) - LDA
                                    # PBE (Perdew-Burke-Ernzerhof) - GGA
MeshCutoff            200.000000    Ry      # Default: 50.0 Ry ~ 0.444 Bohr
                                    #         100.0 Ry ~ 0.314 Bohr
MaxSCFIterations      500           # Default: 50
DM.MixingWeight       0.05          # Default: 0.25
DM.NumberPulay        10            # Default: 0
DM.PulayOnFile        F             # SystemLabel.P1, SystemLabel.P2
DM.Tolerance          1.d-4         # Default: 1.d-4
DM.UseSaveDM          .true.        # because of the bug
SCFMustConverge       .true.
NeglNonOverlapInt     F             # Default: F
Diag.ParallelOverK    .true.
#(5) Eigenvalue problem: order-N or diagonalization
SolutionMethod        Diagon        # or Transiesta
ElectronicTemperature 300.0 K       # Default: 300.0 K
#(6) Molecular dynamics and relaxations
#MD.TypeOfRun          CG            # Type of dynamics:
#MD.VariableCell       F
#MD.NumCGsteps         0           # 0 for single-point / 100 for gopt
#MD.MaxCGDispl         0.2 Bohr      # Default: 0.2 Bohr
#MD.MaxForceTol        0.02 eV/Ang   # Default: 0.04 eV/Ang
#MD.MaxStressTol       1.0 GPa       # Default: 1.0 GPa
************************** End of input data file *****************************

reinit: -----------------------------------------------------------------------
reinit: System Name: GRP_doping
reinit: -----------------------------------------------------------------------
reinit: System Label: GRP_doping                                                  
reinit: -----------------------------------------------------------------------

initatom: Reading input for the pseudopotentials and atomic orbitals ----------
 Species number:            1  Label: C Atomic number:           6
 Species number:            2  Label: B Atomic number:           5
Ground state valence configuration:   2s02  2p02
Reading pseudopotential information in formatted form from C.psf

Valence configuration for pseudopotential generation:
2s( 2.00) rc: 1.54
2p( 2.00) rc: 1.54
3d( 0.00) rc: 1.54
4f( 0.00) rc: 1.54
Ground state valence configuration:   2s02  2p01
Reading pseudopotential information in formatted form from B.psf

Valence configuration for pseudopotential generation:
2s( 2.00) rc: 1.74
2p( 1.00) rc: 1.74
3d( 0.00) rc: 1.74
4f( 0.00) rc: 1.74
For C, standard SIESTA heuristics set lmxkb to 3
 (one more than the basis l, including polarization orbitals).
Use PS.lmax or PS.KBprojectors blocks to override.
For B, standard SIESTA heuristics set lmxkb to 3
 (one more than the basis l, including polarization orbitals).
Use PS.lmax or PS.KBprojectors blocks to override.

<basis_specs>
===============================================================================
C                    Z=   6    Mass=  12.010        Charge= 0.17977+309
Lmxo=1 Lmxkb= 3    BasisType=split      Semic=F
L=0  Nsemic=0  Cnfigmx=2
          n=1  nzeta=2  polorb=0
            splnorm:   0.15000    
               vcte:    0.0000    
               rinn:    0.0000    
                rcs:    0.0000      0.0000    
            lambdas:    1.0000      1.0000    
L=1  Nsemic=0  Cnfigmx=2
          n=1  nzeta=2  polorb=1
            splnorm:   0.15000    
               vcte:    0.0000    
               rinn:    0.0000    
                rcs:    0.0000      0.0000    
            lambdas:    1.0000      1.0000    
-------------------------------------------------------------------------------
L=0  Nkbl=1  erefs: 0.17977+309
L=1  Nkbl=1  erefs: 0.17977+309
L=2  Nkbl=1  erefs: 0.17977+309
L=3  Nkbl=1  erefs: 0.17977+309
===============================================================================
</basis_specs>

atom: Called for C                     (Z =   6)

read_vps: Pseudopotential generation method:
read_vps: ATM3      Troullier-Martins                       
Total valence charge:    4.00000

read_vps: Pseudopotential includes a core correction:
read_vps: Pseudo-core for xc-correction

xc_check: Exchange-correlation functional:
xc_check: GGA Perdew, Burke & Ernzerhof 1996
V l=0 = -2*Zval/r beyond r=  1.5227
V l=1 = -2*Zval/r beyond r=  1.5227
V l=2 = -2*Zval/r beyond r=  1.5227
V l=3 = -2*Zval/r beyond r=  1.5038
All V_l potentials equal beyond r=  1.5227
This should be close to max(r_c) in ps generation
All pots = -2*Zval/r beyond r=  1.5227

VLOCAL1: 99.0% of the norm of Vloc inside     18.722 Ry
VLOCAL1: 99.9% of the norm of Vloc inside     42.668 Ry
atom: Maximum radius for 4*pi*r*r*local-pseudopot. charge    1.83678
atom: Maximum radius for r*vlocal+2*Zval:    1.58088
GHOST: No ghost state for L =  0
GHOST: No ghost state for L =  1
GHOST: No ghost state for L =  2
GHOST: No ghost state for L =  3

KBgen: Kleinman-Bylander projectors: 
   l= 0   rc=  1.704034   el= -1.009801   Ekb=  5.335044   kbcos=  0.316824
   l= 1   rc=  1.704034   el= -0.388707   Ekb= -3.785862   kbcos= -0.366464
   l= 2   rc=  1.791422   el=  0.001971   Ekb= -0.970471   kbcos= -0.009212
   l= 3   rc=  1.859892   el=  0.003065   Ekb= -0.399525   kbcos= -0.001223

KBgen: Total number of  Kleinman-Bylander projectors:   16
atom: -------------------------------------------------------------------------

atom: SANKEY-TYPE ORBITALS:
atom: Selected multiple-zeta basis: split     

SPLIT: Orbitals with angular momentum L= 0

SPLIT: Basis orbitals for state 2s

SPLIT: PAO cut-off radius determined from an
SPLIT: energy shift=  0.007350 Ry

   izeta = 1
                 lambda =    1.000000
                     rc =    4.632753
                 energy =   -1.002270
                kinetic =    0.855760
    potential(screened) =   -1.858031
       potential(ionic) =   -5.417575

   izeta = 2
                 rmatch =    3.431921
              splitnorm =    0.150000
                 energy =   -0.867111
                kinetic =    1.300804
    potential(screened) =   -2.167915
       potential(ionic) =   -5.962684

SPLIT: Orbitals with angular momentum L= 1

SPLIT: Basis orbitals for state 2p

SPLIT: PAO cut-off radius determined from an
SPLIT: energy shift=  0.007350 Ry

   izeta = 1
                 lambda =    1.000000
                     rc =    5.658549
                 energy =   -0.381140
                kinetic =    2.399701
    potential(screened) =   -2.780841
       potential(ionic) =   -6.206085

   izeta = 2
                 rmatch =    3.653288
              splitnorm =    0.150000
                 energy =   -0.249149
                kinetic =    3.542762
    potential(screened) =   -3.791911
       potential(ionic) =   -7.581078

POLgen: Perturbative polarization orbital with L=  2

POLgen: Polarization orbital for state 2p

   izeta = 1
                     rc =    5.658549
                 energy =    1.109913
                kinetic =    2.304789
    potential(screened) =   -1.194876
       potential(ionic) =   -4.013592
atom: Total number of Sankey-type orbitals: 13

atm_pop: Valence configuration (for local Pseudopot. screening):
 2s( 2.00)                                                            
 2p( 2.00)                                                            
Vna: chval, zval:    4.00000   4.00000

Vna:  Cut-off radius for the neutral-atom potential:   5.658549
comcore: Pseudo-core radius Rcore=  1.791422

atom: _________________________________________________________________________

<basis_specs>
===============================================================================
B                    Z=   5    Mass=  10.810        Charge= 0.17977+309
Lmxo=1 Lmxkb= 3    BasisType=split      Semic=F
L=0  Nsemic=0  Cnfigmx=2
          n=1  nzeta=2  polorb=0
            splnorm:   0.15000    
               vcte:    0.0000    
               rinn:    0.0000    
                rcs:    0.0000      0.0000    
            lambdas:    1.0000      1.0000    
L=1  Nsemic=0  Cnfigmx=2
          n=1  nzeta=2  polorb=1
            splnorm:   0.15000    
               vcte:    0.0000    
               rinn:    0.0000    
                rcs:    0.0000      0.0000    
            lambdas:    1.0000      1.0000    
-------------------------------------------------------------------------------
L=0  Nkbl=1  erefs: 0.17977+309
L=1  Nkbl=1  erefs: 0.17977+309
L=2  Nkbl=1  erefs: 0.17977+309
L=3  Nkbl=1  erefs: 0.17977+309
===============================================================================
</basis_specs>

atom: Called for B                     (Z =   5)

read_vps: Pseudopotential generation method:
read_vps: ATM3      Troullier-Martins                       
Total valence charge:    3.00000

read_vps: Pseudopotential includes a core correction:
read_vps: Pseudo-core for xc-correction

xc_check: Exchange-correlation functional:
xc_check: GGA Perdew, Burke & Ernzerhof 1996
V l=0 = -2*Zval/r beyond r=  1.7165
V l=1 = -2*Zval/r beyond r=  1.7165
V l=2 = -2*Zval/r beyond r=  1.7165
V l=3 = -2*Zval/r beyond r=  1.6951
All V_l potentials equal beyond r=  1.7165
This should be close to max(r_c) in ps generation
All pots = -2*Zval/r beyond r=  1.7165

VLOCAL1: 99.0% of the norm of Vloc inside     14.733 Ry
VLOCAL1: 99.9% of the norm of Vloc inside     33.577 Ry
atom: Maximum radius for 4*pi*r*r*local-pseudopot. charge    2.04484
atom: Maximum radius for r*vlocal+2*Zval:    1.75994
GHOST: No ghost state for L =  0
GHOST: No ghost state for L =  1
GHOST: No ghost state for L =  2
GHOST: No ghost state for L =  3

KBgen: Kleinman-Bylander projectors: 
   l= 0   rc=  1.897051   el= -0.693730   Ekb=  4.595746   kbcos=  0.286105
   l= 1   rc=  1.920920   el= -0.265236   Ekb= -2.350715   kbcos= -0.315747
   l= 2   rc=  2.044840   el=  0.002055   Ekb= -0.690767   kbcos= -0.013822
   l= 3   rc=  2.149707   el=  0.003188   Ekb= -0.315358   kbcos= -0.002055

KBgen: Total number of  Kleinman-Bylander projectors:   16
atom: -------------------------------------------------------------------------

atom: SANKEY-TYPE ORBITALS:
atom: Selected multiple-zeta basis: split     

SPLIT: Orbitals with angular momentum L= 0

SPLIT: Basis orbitals for state 2s

SPLIT: PAO cut-off radius determined from an
SPLIT: energy shift=  0.007350 Ry

   izeta = 1
                 lambda =    1.000000
                     rc =    5.422032
                 energy =   -0.686029
                kinetic =    0.576707
    potential(screened) =   -1.262736
       potential(ionic) =   -3.271094

   izeta = 2
                 rmatch =    4.222573
              splitnorm =    0.150000
                 energy =   -0.602132
                kinetic =    0.858975
    potential(screened) =   -1.461107
       potential(ionic) =   -3.582536

SPLIT: Orbitals with angular momentum L= 1

SPLIT: Basis orbitals for state 2p

SPLIT: PAO cut-off radius determined from an
SPLIT: energy shift=  0.007350 Ry

   izeta = 1
                 lambda =    1.000000
                     rc =    6.790259
                 energy =   -0.258578
                kinetic =    1.481412
    potential(screened) =   -1.739989
       potential(ionic) =   -3.657461

   izeta = 2
                 rmatch =    4.608740
              splitnorm =    0.150000
                 energy =   -0.173757
                kinetic =    2.186690
    potential(screened) =   -2.360447
       potential(ionic) =   -4.464260

POLgen: Perturbative polarization orbital with L=  2

POLgen: Polarization orbital for state 2p

   izeta = 1
                     rc =    6.790259
                 energy =    0.684082
                kinetic =    1.471481
    potential(screened) =   -0.787399
       potential(ionic) =   -2.406985
atom: Total number of Sankey-type orbitals: 13

atm_pop: Valence configuration (for local Pseudopot. screening):
 2s( 2.00)                                                            
 2p( 1.00)                                                            
Vna: chval, zval:    3.00000   3.00000

Vna:  Cut-off radius for the neutral-atom potential:   6.790259
comcore: Pseudo-core radius Rcore=  2.122997

atom: _________________________________________________________________________

prinput: Basis input ----------------------------------------------------------

PAO.BasisType split     

%block ChemicalSpeciesLabel
    1    6 C                       # Species index, atomic number, species label
    2    5 B                       # Species index, atomic number, species label
%endblock ChemicalSpeciesLabel

%block PAO.Basis                 # Define Basis set
C                     2                    # Species label, number of l-shells
 n=2   0   2                         # n, l, Nzeta 
   4.633      3.432   
   1.000      1.000   
 n=2   1   2 P   1                   # n, l, Nzeta, Polarization, NzetaPol
   5.659      3.653   
   1.000      1.000   
B                     2                    # Species label, number of l-shells
 n=2   0   2                         # n, l, Nzeta 
   5.422      4.223   
   1.000      1.000   
 n=2   1   2 P   1                   # n, l, Nzeta, Polarization, NzetaPol
   6.790      4.609   
   1.000      1.000   
%endblock PAO.Basis

prinput: ----------------------------------------------------------------------

coor:   Atomic-coordinates input format  =     Cartesian coordinates
coor:                                          (in Angstroms)

siesta: Atomic coordinates (Bohr) and species
siesta:      2.23554   1.32097   0.00000  1        1
siesta:      4.56367   2.66461   0.00000  1        2
siesta:     32.50328  21.48508   0.00000  1        3
siesta:     34.83141  22.82873   0.00000  1        4
siesta:     34.83116  17.45226   0.00000  1        5
siesta:     37.15930  18.79590   0.00000  1        6
siesta:     32.50291  13.41944   0.00000  1        7
siesta:     34.83104  14.76308   0.00000  1        8
siesta:     30.17465   9.38661   0.00000  1        9
siesta:     32.50278  10.73026   0.00000  1       10
siesta:     27.84639   5.35379   0.00000  1       11
siesta:     30.17453   6.69743   0.00000  1       12
siesta:     27.84714  21.48508   0.00000  1       13
siesta:     30.17527  22.82873   0.00000  1       14
siesta:      6.89168   1.32097   0.00000  1       15
siesta:      9.21981   2.66461   0.00000  1       16
siesta:     11.54782   1.32097   0.00000  1       17
siesta:     13.87595   2.66461   0.00000  1       18
siesta:     16.20396   1.32097   0.00000  1       19
siesta:     18.53210   2.66461   0.00000  1       20
siesta:     20.86199   1.32097   0.00000  1       21
siesta:     23.19013   2.66461   0.00000  1       22
siesta:     25.51813   1.32097   0.00000  1       23
siesta:     27.84627   2.66461   0.00000  1       24
siesta:      4.56380   5.35379   0.00000  1       25
siesta:      6.89193   6.69743   0.00000  1       26
siesta:      9.21994   5.35379   0.00000  1       27
siesta:     11.54807   6.69743   0.00000  1       28
siesta:     13.87608   5.35379   0.00000  1       29
siesta:     16.20421   6.69743   0.00000  1       30
siesta:     18.53411   5.35379   0.00000  1       31
siesta:     20.86224   6.69743   0.00000  1       32
siesta:     23.19025   5.35379   0.00000  1       33
siesta:     25.51838   6.69743   0.00000  1       34
siesta:      6.89205   9.38661   0.00000  1       35
siesta:      9.22019  10.73026   0.00000  1       36
siesta:     11.54820   9.38661   0.00000  1       37
siesta:     13.87633  10.73026   0.00000  1       38
siesta:     16.20434   9.38661   0.00000  1       39
siesta:     18.53247  10.73026   0.00000  1       40
siesta:     20.86237   9.38661   0.00000  1       41
siesta:      9.22031  13.41944   0.00000  1       42
siesta:     11.54845  14.76308   0.00000  1       43
siesta:     13.87645  13.41944   0.00000  1       44
siesta:     16.20459  14.76308   0.00000  1       45
siesta:     20.86262  14.76308   0.00000  1       46
siesta:     11.54857  17.45226   0.00000  1       47
siesta:     13.87670  18.79590   0.00000  1       48
siesta:     16.20471  17.45226   0.00000  1       49
siesta:     18.53284  18.79590   0.00000  1       50
siesta:     13.87683  21.48508   0.00000  1       51
siesta:     16.20496  22.82873   0.00000  1       52
siesta:     18.53486  21.48508   0.00000  1       53
siesta:     20.86299  22.82873   0.00000  1       54
siesta:     25.51851   9.38661   0.00000  1       55
siesta:     27.84664  10.73026   0.00000  1       56
siesta:     23.19063  13.41944   0.00000  1       57
siesta:     25.51876  14.76308   0.00000  1       58
siesta:     20.86274  17.45226   0.00000  1       59
siesta:     23.19088  18.79590   0.00000  1       60
siesta:     27.84677  13.41944   0.00000  1       61
siesta:     30.17490  14.76308   0.00000  1       62
siesta:     25.51888  17.45226   0.00000  1       63
siesta:     27.84702  18.79590   0.00000  1       64
siesta:     23.19100  21.48508   0.00000  1       65
siesta:     25.51913  22.82873   0.00000  1       66
siesta:     30.17503  17.45226   0.00000  1       67
siesta:     32.50316  18.79590   0.00000  1       68
siesta:     37.16131  21.48508   0.00000  1       69
siesta:     39.48945  22.82873   0.00000  1       70
siesta:     23.19050  10.73026   0.00000  2       71
siesta:     18.53448  13.41944   0.00000  2       72

siesta: System type = slab      

initatomlists: Number of atoms, orbitals, and projectors:     72   936  1152

siesta: ******************** Simulation parameters ****************************
siesta:
siesta: The following are some of the parameters of the simulation.
siesta: A complete list of the parameters used, including default values,
siesta: can be found in file out.fdf
siesta:
redata: Non-Collinear-spin run           =     F
redata: SpinPolarized (Up/Down) run      =     F
redata: Number of spin components        =     1
redata: Long output                      =     F
redata: Number of Atomic Species         =        2
redata: Charge density info will appear in .RHO file
redata: Write Mulliken Pop.              =     NO
redata: Mesh Cutoff                      =   200.0000  Ry
redata: Net charge of the system         =     0.0000 |e|
redata: Max. number of SCF Iter          =      500
redata: SCF convergence failure will abort job
redata: Performing Pulay mixing using    =    10 iterations
redata: Mix DM in first SCF step ?       =     F
redata: Write Pulay info on disk?        =     F
redata: Discard 1st Pulay DM after  kick =     F
redata: New DM Mixing Weight             =     0.0500
redata: New DM Occupancy tolerance       = 0.000000000001
redata: No kicks to SCF
redata: DM Mixing Weight for Kicks       =     0.5000
redata: DM Tolerance for SCF             =     0.000100
redata: Require Energy convergence for SCF =     F
redata: DM Energy tolerance for SCF      =     0.000100 eV
redata: Require Harris convergence for SCF =     F
redata: DM Harris energy tolerance for SCF =     0.000100 eV
redata: Using Saved Data (generic)   =     F
redata: Use continuation files for DM    =     T
redata: Neglect nonoverlap interactions  =     F
redata: Method of Calculation            =     Diagonalization
redata: Divide and Conquer               =     T
redata: Electronic Temperature           =     0.0019  Ry
redata: Fix the spin of the system       =     F
redata: Dynamics option                  =     Verlet MD run
redata: Initial MD time step             =        1
redata:   Final MD time step             =        1
redata: Length of MD time step           =     1.0000  fs
redata: Initial Temperature of MD run    =     0.0000  K
redata: Perform a MD quench              =     F
redata: ***********************************************************************
Total number of electrons:   286.000000
Total ionic charge:   286.000000

* ProcessorY, Blocksize:    3  24

k-point displ. along   1 input, could be:     0.50    0.00
k-point displ. along   2 input, could be:     0.50    0.00
 Kpoints in:          231 . Kpoints trimmed:          231

siesta: k-grid: Number of k-points =   231
siesta: k-grid: Cutoff (effective) =     5.000 Ang
siesta: k-grid: Supercell and displacements
siesta: k-grid:   21   0   0      0.500
siesta: k-grid:    0  21   0      0.500
siesta: k-grid:    0   0   1      0.000
Naive supercell factors:     2    2    2

superc: Internal auxiliary supercell:     2 x     2 x     2  =       8
superc: Number of atoms, orbitals, and projectors:    576   7488   9216

* Maximum dynamic memory allocated =     4 MB

siesta:                 ==============================
                            Begin MD step =      1
                        ==============================

superc: Internal auxiliary supercell:     2 x     2 x     2  =       8
superc: Number of atoms, orbitals, and projectors:    576   7488   9216

outcell: Unit cell vectors (Ang):
       14.785000    0.000000    0.000000
        7.393000   12.805052    0.000000
        0.000000    0.000000   10.000000

outcell: Cell vector modules (Ang)   :   14.785000   14.786000   10.000000
outcell: Cell angles (23,13,12) (deg):     90.0000     90.0000     60.0000
outcell: Cell volume (Ang**3)        :   1893.2269
New_DM. Step:     1
Initializing Density Matrix...

iodm: Reading Density Matrix from files

InitMesh: MESH =   120 x   120 x    90 =     1296000
InitMesh: Mesh cutoff (required, used) =   200.000   223.865 Ry

* Maximum dynamic memory allocated =   142 MB

stepf: Fermi-Dirac step function

siesta: Program's energy decomposition (eV):
siesta: Ebs     =     -3881.906986
siesta: Eions   =     18146.897649
siesta: Ena     =      3930.199628
siesta: Ekin    =      7737.047544
siesta: Enl     =      -770.338713
siesta: DEna    =      -298.382053
siesta: DUscf   =        27.524601
siesta: DUext   =         0.000000
siesta: Exc     =     -4046.635997
siesta: eta*DQ  =         0.000000
siesta: Emadel  =         0.000000
siesta: Emeta   =         0.000000
siesta: Emolmec =         0.000000
siesta: Ekinion =         0.000000
siesta: Eharris =    -11567.482644
siesta: Etot    =    -11567.482637
siesta: FreeEng =    -11567.482637

siesta: iscf   Eharris(eV)      E_KS(eV)   FreeEng(eV)   dDmax  Ef(eV)
siesta:    1   -11567.4826   -11567.4826   -11567.4826  0.0000 -5.1559
timer: Routine,Calls,Time,% = IterSCF        1    1164.856  98.93
elaps: Routine,Calls,Wall,% = IterSCF        1      97.308  98.93

siesta: E_KS(eV) =           -11567.4826

siesta: E_KS - E_eggbox =    -11567.4826

siesta: Atomic forces (eV/Ang):
----------------------------------------
   Tot    0.193646   -0.284474    0.000000
----------------------------------------
   Max    4.284587
   Res    0.689770    sqrt( Sum f_i^2 / 3N )
----------------------------------------
   Max    4.284587    constrained

Stress-tensor-Voigt (kbar):      -54.16      -53.84       -0.05       -0.91        0.00        0.00
(Free)E + p*V (eV/cell)   -11524.9383
Target enthalpy (eV/cell)   -11567.4985

siesta: Stress tensor (static) (eV/Ang**3):
        -0.033804   -0.000567    0.000000
        -0.000567   -0.033605    0.000000
         0.000000    0.000000   -0.000031

siesta: Pressure (static):         36.01770109  kBar

siesta: Stress tensor (total) (eV/Ang**3):
        -0.033804   -0.000567    0.000000
        -0.000567   -0.033605    0.000000
         0.000000    0.000000   -0.000031

siesta: Pressure (total):         36.01770109  kBar

siesta: Temp_ion =       0.000 K

* Maximum dynamic memory allocated =   237 MB

siesta: Program's energy decomposition (eV):
siesta: Ebs     =     -3881.906986
siesta: Eions   =     18146.897649
siesta: Ena     =      3930.199628
siesta: Ekin    =      7737.045455
siesta: Enl     =      -770.338290
siesta: DEna    =      -298.380890
siesta: DUscf   =        27.524715
siesta: DUext   =         0.000000
siesta: Exc     =     -4046.635608
siesta: eta*DQ  =         0.000000
siesta: Emadel  =         0.000000
siesta: Emeta   =         0.000000
siesta: Emolmec =         0.000000
siesta: Ekinion =         0.000000
siesta: Eharris =    -11567.482644
siesta: Etot    =    -11567.482640
siesta: FreeEng =    -11567.498531

siesta: Final energy (eV):
siesta:  Band Struct. =   -3881.906986
siesta:       Kinetic =    7737.045455
siesta:       Hartree =   22795.160334
siesta:    Ext. field =       0.000000
siesta:   Exch.-corr. =   -4046.635608
siesta:  Ion-electron =  -52706.983970
siesta:       Ion-ion =   14653.931150
siesta:       Ekinion =       0.000000
siesta:         Total =  -11567.482640

siesta: Atomic forces (eV/Ang):
siesta:      1   -0.091892   -0.163053    0.000000
siesta:      2    0.045098    0.075155    0.000000
siesta:      3    0.017177   -0.010623    0.000000
siesta:      4    0.023248    0.060910    0.000000
siesta:      5    0.050166    0.070917    0.000000
siesta:      6   -0.096487    0.069311    0.000000
siesta:      7    0.186584   -0.064713    0.000000
siesta:      8   -0.062570   -0.136020    0.000000
siesta:      9    0.086104    0.131914    0.000000
siesta:     10    0.079330   -0.002292    0.000000
siesta:     11   -0.078928   -0.149912    0.000000
siesta:     12   -0.102283    0.063628    0.000000
siesta:     13    0.036187    0.014722    0.000000
siesta:     14   -0.034703    0.042659    0.000000
siesta:     15    0.022283   -0.073953    0.000000
siesta:     16   -0.009446    0.003528    0.000000
siesta:     17    0.041355   -0.050970    0.000000
siesta:     18   -0.030320   -0.024478    0.000000
siesta:     19    0.007974   -0.067919    0.000000
siesta:     20    0.024739   -0.066161    0.000000
siesta:     21   -0.180897   -0.094991    0.000000
siesta:     22    0.015806    0.399953    0.000000
siesta:     23    0.145888   -0.160450    0.000000
siesta:     24    0.043275   -0.060903    0.000000
siesta:     25    0.112347   -0.074353    0.000000
siesta:     26   -0.047054   -0.076590    0.000000
siesta:     27    0.048981   -0.001763    0.000000
siesta:     28    0.016670   -0.161689    0.000000
siesta:     29   -0.033646   -0.053406    0.000000
siesta:     30   -0.072306   -0.018715    0.000000
siesta:     31    0.005614   -0.094852    0.000000
siesta:     32   -0.376249    0.211639    0.000000
siesta:     33   -0.111240   -0.490242    0.000000
siesta:     34    0.597336    0.349581    0.000000
siesta:     35    0.068168    0.127573    0.000000
siesta:     36   -0.182485    0.055724    0.000000
siesta:     37    0.346101    0.207039    0.000000
siesta:     38   -0.353743   -0.337460    0.000000
siesta:     39    0.373820   -0.232915    0.000000
siesta:     40    0.016043   -4.284587    0.000000
siesta:     41   -3.737328   -2.166283    0.000000
siesta:     42   -0.074126   -0.006142    0.000000
siesta:     43   -0.079347   -0.140471    0.000000
siesta:     44    0.011845    0.676227    0.000000
siesta:     45   -2.967154    1.719811    0.000000
siesta:     46    3.708625    2.166566    0.000000
siesta:     47    0.102056   -0.071042    0.000000
siesta:     48    0.082853    0.140210    0.000000
siesta:     49   -0.586666   -0.358878    0.000000
siesta:     50    0.157498    0.475508    0.000000
siesta:     51   -0.007425    0.046149    0.000000
siesta:     52   -0.097325    0.146978    0.000000
siesta:     53   -0.053579   -0.404831    0.000000
siesta:     54    0.143940    0.088904    0.000000
siesta:     55    3.009640   -1.746245    0.000000
siesta:     56   -0.001382   -0.688479    0.000000
siesta:     57    0.020945    4.276279    0.000000
siesta:     58   -0.366413    0.224817    0.000000
siesta:     59    0.347745   -0.210744    0.000000
siesta:     60   -0.044362    0.090982    0.000000
siesta:     61    0.358544    0.328771    0.000000
siesta:     62   -0.340315   -0.216244    0.000000
siesta:     63    0.107132    0.000858    0.000000
siesta:     64    0.044472    0.043626    0.000000
siesta:     65    0.020692    0.051884    0.000000
siesta:     66    0.000133    0.061015    0.000000
siesta:     67   -0.012144    0.153348    0.000000
siesta:     68   -0.042575   -0.007292    0.000000
siesta:     69   -0.082473   -0.078550    0.000000
siesta:     70    0.052312    0.160863    0.000000
siesta:     71    0.272028   -0.137844    0.000000
siesta:     72   -0.300246    0.164531    0.000000
siesta: ----------------------------------------
siesta:    Tot    0.193646   -0.284474    0.000000

siesta: Stress tensor (static) (eV/Ang**3):
siesta:    -0.033804   -0.000567    0.000000
siesta:    -0.000567   -0.033605    0.000000
siesta:     0.000000    0.000000   -0.000031

siesta: Cell volume =       1893.226895 Ang**3

siesta: Pressure (static):
siesta:                Solid            Molecule  Units
siesta:           0.00024484          0.00016452  Ry/Bohr**3
siesta:           0.02248024          0.01510596  eV/Ang**3
siesta:          36.01770109         24.20267862  kBar
(Free)E+ p_basis*V_orbitals  =      -11536.129005
(Free)Eharris+ p_basis*V_orbitals  =      -11536.129012

siesta: Electric dipole (a.u.)  =    0.000000    0.000000    0.000000
siesta: Electric dipole (Debye) =    0.000000    0.000000    0.000000

* Maximum dynamic memory allocated : Node    0 =   237 MB
* Maximum dynamic memory allocated : Node    1 =   149 MB
* Maximum dynamic memory allocated : Node    2 =   151 MB
* Maximum dynamic memory allocated : Node    3 =   226 MB
* Maximum dynamic memory allocated : Node    4 =   234 MB
* Maximum dynamic memory allocated : Node    5 =   145 MB
* Maximum dynamic memory allocated : Node    6 =   146 MB
* Maximum dynamic memory allocated : Node    7 =   228 MB
* Maximum dynamic memory allocated : Node    8 =   233 MB
* Maximum dynamic memory allocated : Node    9 =   144 MB
* Maximum dynamic memory allocated : Node   10 =   146 MB
* Maximum dynamic memory allocated : Node   11 =   226 MB

* Maximum memory occured during cdiag                         

timer: CPU execution times:
timer:  Routine       Calls   Time/call    Tot.time        %
timer:  siesta            1    1300.749    1300.749   100.00
timer:  Setup             1       3.390       3.390     0.26
timer:  bands             1       0.008       0.008     0.00
timer:  writewave         1       0.023       0.023     0.00
timer:  KSV_init          1       0.004       0.004     0.00
timer:  IterMD            1    1290.931    1290.931    99.25
timer:  hsparse           1       0.282       0.282     0.02
timer:  overlap           1       4.753       4.753     0.37
timer:  IterSCF           1    1164.856    1164.856    89.55
timer:  kinefsm           2       2.413       4.826     0.37
timer:  nlefsm            2      19.269      38.538     2.96
timer:  DHSCF             2      88.292     176.583    13.58
timer:  DHSCF1            1       1.188       1.188     0.09
timer:  DHSCF2            1      30.242      30.242     2.32
timer:  REORD            18       0.003       0.058     0.00
timer:  POISON            3       0.475       1.424     0.11
timer:  DHSCF3            2      60.904     121.808     9.36
timer:  rhoofd            2      12.543      25.085     1.93
timer:  cellXC            2       2.456       4.911     0.38
timer:  vmat              2      30.216      60.432     4.65
timer:  MolMec            2       0.000       0.000     0.00
timer:  diagon            1    1031.599    1031.599    79.31
timer:  cdiag            40      17.846     686.834    52.80
timer:  cdiag1           40       0.881      33.892     2.61
timer:  cdiag2           40       3.056     117.593     9.04
timer:  cdiag3           40      13.710     527.689    40.57
timer:  cdiag4           40       0.195       7.519     0.58
timer:  DHSCF4            1      23.298      23.298     1.79
timer:  dfscf             1      21.304      21.304     1.64
timer:  overfsm           1       0.282       0.282     0.02
timer:  optical           1       5.885       5.885     0.45
  

elaps: ELAPSED times:
elaps:  Routine       Calls   Time/call    Tot.time        %
elaps:  siesta            1     108.659     108.659   100.00
elaps:  Setup             1       0.283       0.283     0.26
elaps:  bands             1       0.001       0.001     0.00
elaps:  writewave         1       0.002       0.002     0.00
elaps:  KSV_init          1       0.000       0.000     0.00
elaps:  IterMD            1     107.839     107.839    99.24
elaps:  hsparse           1       0.028       0.028     0.03
elaps:  overlap           1       0.377       0.377     0.35
elaps:  IterSCF           1      97.308      97.308    89.55
elaps:  kinefsm           2       0.194       0.388     0.36
elaps:  nlefsm            2       1.823       3.645     3.35
elaps:  DHSCF             2       8.145      16.290    14.99
elaps:  DHSCF1            1       0.101       0.101     0.09
elaps:  DHSCF2            1       2.525       2.525     2.32
elaps:  REORD            18       0.000       0.005     0.00
elaps:  POISON            3       0.040       0.120     0.11
elaps:  DHSCF3            2       5.087      10.173     9.36
elaps:  rhoofd            2       1.841       3.683     3.39
elaps:  cellXC            2       0.205       0.410     0.38
elaps:  vmat              2       2.523       5.047     4.64
elaps:  MolMec            2       0.000       0.000     0.00
elaps:  diagon            1      86.177      86.177    79.31
elaps:  cdiag            40       1.468      58.732    54.05
elaps:  cdiag1           40       0.069       2.777     2.56
elaps:  cdiag2           40       0.240       9.613     8.85
elaps:  cdiag3           40       1.141      45.632    42.00
elaps:  cdiag4           40       0.017       0.700     0.64
elaps:  DHSCF4            1       3.485       3.485     3.21
elaps:  dfscf             1       3.246       3.246     2.99
elaps:  overfsm           1       0.029       0.029     0.03
elaps:  optical           1       0.000       0.000     0.00
  
>> End of run:   6-APR-2016  14:05:46
