Siesta Version:                                        siesta-3.2-pl-3
Architecture  : x86_64-unknown-linux-gnu--unknown
Compiler flags: mpiifort -g -O2 -fPIC -xSSE4.1 -fp-model source -shared-intel 
PARALLEL version

* Running on    8 nodes in parallel
>> Start of run:  23-APR-2016  17:16:44

                           ***********************       
                           *  WELCOME TO SIESTA  *       
                           ***********************       

reinit: Reading from standard input
************************** Dump of input data file ****************************
#(1) General system descriptors
SystemName            GRP_doping    # Descriptive name of the system
SystemLabel           GRP_doping    # Short name for naming files
%include STRUCT.fdf
%include KPT.fdf
%include BASIS.fdf
#%include TS.fdf # for transiesta calculation
#(4) DFT, Grid, SCF
XC.functional         GGA           # LDA or GGA (default = LDA)
XC.authors            PBE           # CA (Ceperley-Aldr) = PZ
                                    #    (Perdew-Zunger) - LDA - Default
                                    # PW92 (Perdew-Wang-92) - LDA
                                    # PBE (Perdew-Burke-Ernzerhof) - GGA
MeshCutoff            200.000000    Ry      # Default: 50.0 Ry ~ 0.444 Bohr
                                    #         100.0 Ry ~ 0.314 Bohr
MaxSCFIterations      500           # Default: 50
DM.MixingWeight       0.05          # Default: 0.25
DM.NumberPulay        10            # Default: 0
DM.PulayOnFile        F             # SystemLabel.P1, SystemLabel.P2
DM.Tolerance          1.d-4         # Default: 1.d-4
DM.UseSaveDM          .true.        # because of the bug
SCFMustConverge       .true.
NeglNonOverlapInt     F             # Default: F
#(5) Eigenvalue problem: order-N or diagonalization
SolutionMethod        Diagon        # or Transiesta
ElectronicTemperature 300.0 K       # Default: 300.0 K
#(6) Molecular dynamics and relaxations
#MD.TypeOfRun          CG            # Type of dynamics:
#MD.VariableCell       F
#MD.NumCGsteps         0           # 0 for single-point / 100 for gopt
#MD.MaxCGDispl         0.2 Bohr      # Default: 0.2 Bohr
#MD.MaxForceTol        0.02 eV/Ang   # Default: 0.04 eV/Ang
#MD.MaxStressTol       1.0 GPa       # Default: 1.0 GPa
# Geometry Constraints
#%block GeometryConstraints
#	position from 1 to 44
#%endblock GeometryConstraints
BandLinesScale   pi/a
%block BandLines
 1   0.00000000  0.00000000  0.00000000
50   0.00000000  0.07809418  0.00000000
50   0.04509075  0.07809242  0.00000000
20   0.00000000  0.00000000  0.00000000
%endblock BandLines
************************** End of input data file *****************************

reinit: -----------------------------------------------------------------------
reinit: System Name: GRP_doping
reinit: -----------------------------------------------------------------------
reinit: System Label: GRP_doping                                                  
reinit: -----------------------------------------------------------------------

initatom: Reading input for the pseudopotentials and atomic orbitals ----------
 Species number:            1  Label: B Atomic number:           5
 Species number:            2  Label: C Atomic number:           6
Ground state valence configuration:   2s02  2p01
Reading pseudopotential information in formatted form from B.psf

Valence configuration for pseudopotential generation:
2s( 2.00) rc: 1.74
2p( 1.00) rc: 1.74
3d( 0.00) rc: 1.74
4f( 0.00) rc: 1.74
Ground state valence configuration:   2s02  2p02
Reading pseudopotential information in formatted form from C.psf

Valence configuration for pseudopotential generation:
2s( 2.00) rc: 1.54
2p( 2.00) rc: 1.54
3d( 0.00) rc: 1.54
4f( 0.00) rc: 1.54
For B, standard SIESTA heuristics set lmxkb to 3
 (one more than the basis l, including polarization orbitals).
Use PS.lmax or PS.KBprojectors blocks to override.
For C, standard SIESTA heuristics set lmxkb to 3
 (one more than the basis l, including polarization orbitals).
Use PS.lmax or PS.KBprojectors blocks to override.

<basis_specs>
===============================================================================
B                    Z=   5    Mass=  10.810        Charge= 0.17977+309
Lmxo=1 Lmxkb= 3    BasisType=split      Semic=F
L=0  Nsemic=0  Cnfigmx=2
          n=1  nzeta=2  polorb=0
            splnorm:   0.15000    
               vcte:    0.0000    
               rinn:    0.0000    
                rcs:    0.0000      0.0000    
            lambdas:    1.0000      1.0000    
L=1  Nsemic=0  Cnfigmx=2
          n=1  nzeta=2  polorb=1
            splnorm:   0.15000    
               vcte:    0.0000    
               rinn:    0.0000    
                rcs:    0.0000      0.0000    
            lambdas:    1.0000      1.0000    
-------------------------------------------------------------------------------
L=0  Nkbl=1  erefs: 0.17977+309
L=1  Nkbl=1  erefs: 0.17977+309
L=2  Nkbl=1  erefs: 0.17977+309
L=3  Nkbl=1  erefs: 0.17977+309
===============================================================================
</basis_specs>

atom: Called for B                     (Z =   5)

read_vps: Pseudopotential generation method:
read_vps: ATM3      Troullier-Martins                       
Total valence charge:    3.00000

read_vps: Pseudopotential includes a core correction:
read_vps: Pseudo-core for xc-correction

xc_check: Exchange-correlation functional:
xc_check: GGA Perdew, Burke & Ernzerhof 1996
V l=0 = -2*Zval/r beyond r=  1.7165
V l=1 = -2*Zval/r beyond r=  1.7165
V l=2 = -2*Zval/r beyond r=  1.7165
V l=3 = -2*Zval/r beyond r=  1.6951
All V_l potentials equal beyond r=  1.7165
This should be close to max(r_c) in ps generation
All pots = -2*Zval/r beyond r=  1.7165

VLOCAL1: 99.0% of the norm of Vloc inside     14.733 Ry
VLOCAL1: 99.9% of the norm of Vloc inside     33.577 Ry
atom: Maximum radius for 4*pi*r*r*local-pseudopot. charge    2.04484
atom: Maximum radius for r*vlocal+2*Zval:    1.75994
GHOST: No ghost state for L =  0
GHOST: No ghost state for L =  1
GHOST: No ghost state for L =  2
GHOST: No ghost state for L =  3

KBgen: Kleinman-Bylander projectors: 
   l= 0   rc=  1.897051   el= -0.693730   Ekb=  4.595746   kbcos=  0.286105
   l= 1   rc=  1.920920   el= -0.265236   Ekb= -2.350715   kbcos= -0.315747
   l= 2   rc=  2.044840   el=  0.002055   Ekb= -0.690767   kbcos= -0.013822
   l= 3   rc=  2.149707   el=  0.003188   Ekb= -0.315358   kbcos= -0.002055

KBgen: Total number of  Kleinman-Bylander projectors:   16
atom: -------------------------------------------------------------------------

atom: SANKEY-TYPE ORBITALS:
atom: Selected multiple-zeta basis: split     

SPLIT: Orbitals with angular momentum L= 0

SPLIT: Basis orbitals for state 2s

SPLIT: PAO cut-off radius determined from an
SPLIT: energy shift=  0.007350 Ry

   izeta = 1
                 lambda =    1.000000
                     rc =    5.422032
                 energy =   -0.686029
                kinetic =    0.576707
    potential(screened) =   -1.262736
       potential(ionic) =   -3.271094

   izeta = 2
                 rmatch =    4.222573
              splitnorm =    0.150000
                 energy =   -0.602132
                kinetic =    0.858975
    potential(screened) =   -1.461107
       potential(ionic) =   -3.582536

SPLIT: Orbitals with angular momentum L= 1

SPLIT: Basis orbitals for state 2p

SPLIT: PAO cut-off radius determined from an
SPLIT: energy shift=  0.007350 Ry

   izeta = 1
                 lambda =    1.000000
                     rc =    6.790259
                 energy =   -0.258578
                kinetic =    1.481412
    potential(screened) =   -1.739989
       potential(ionic) =   -3.657461

   izeta = 2
                 rmatch =    4.608740
              splitnorm =    0.150000
                 energy =   -0.173757
                kinetic =    2.186690
    potential(screened) =   -2.360447
       potential(ionic) =   -4.464260

POLgen: Perturbative polarization orbital with L=  2

POLgen: Polarization orbital for state 2p

   izeta = 1
                     rc =    6.790259
                 energy =    0.684082
                kinetic =    1.471481
    potential(screened) =   -0.787399
       potential(ionic) =   -2.406985
atom: Total number of Sankey-type orbitals: 13

atm_pop: Valence configuration (for local Pseudopot. screening):
 2s( 2.00)                                                            
 2p( 1.00)                                                            
Vna: chval, zval:    3.00000   3.00000

Vna:  Cut-off radius for the neutral-atom potential:   6.790259
comcore: Pseudo-core radius Rcore=  2.122997

atom: _________________________________________________________________________

<basis_specs>
===============================================================================
C                    Z=   6    Mass=  12.010        Charge= 0.17977+309
Lmxo=1 Lmxkb= 3    BasisType=split      Semic=F
L=0  Nsemic=0  Cnfigmx=2
          n=1  nzeta=2  polorb=0
            splnorm:   0.15000    
               vcte:    0.0000    
               rinn:    0.0000    
                rcs:    0.0000      0.0000    
            lambdas:    1.0000      1.0000    
L=1  Nsemic=0  Cnfigmx=2
          n=1  nzeta=2  polorb=1
            splnorm:   0.15000    
               vcte:    0.0000    
               rinn:    0.0000    
                rcs:    0.0000      0.0000    
            lambdas:    1.0000      1.0000    
-------------------------------------------------------------------------------
L=0  Nkbl=1  erefs: 0.17977+309
L=1  Nkbl=1  erefs: 0.17977+309
L=2  Nkbl=1  erefs: 0.17977+309
L=3  Nkbl=1  erefs: 0.17977+309
===============================================================================
</basis_specs>

atom: Called for C                     (Z =   6)

read_vps: Pseudopotential generation method:
read_vps: ATM3      Troullier-Martins                       
Total valence charge:    4.00000

read_vps: Pseudopotential includes a core correction:
read_vps: Pseudo-core for xc-correction

xc_check: Exchange-correlation functional:
xc_check: GGA Perdew, Burke & Ernzerhof 1996
V l=0 = -2*Zval/r beyond r=  1.5227
V l=1 = -2*Zval/r beyond r=  1.5227
V l=2 = -2*Zval/r beyond r=  1.5227
V l=3 = -2*Zval/r beyond r=  1.5038
All V_l potentials equal beyond r=  1.5227
This should be close to max(r_c) in ps generation
All pots = -2*Zval/r beyond r=  1.5227

VLOCAL1: 99.0% of the norm of Vloc inside     18.722 Ry
VLOCAL1: 99.9% of the norm of Vloc inside     42.668 Ry
atom: Maximum radius for 4*pi*r*r*local-pseudopot. charge    1.83678
atom: Maximum radius for r*vlocal+2*Zval:    1.58088
GHOST: No ghost state for L =  0
GHOST: No ghost state for L =  1
GHOST: No ghost state for L =  2
GHOST: No ghost state for L =  3

KBgen: Kleinman-Bylander projectors: 
   l= 0   rc=  1.704034   el= -1.009801   Ekb=  5.335044   kbcos=  0.316824
   l= 1   rc=  1.704034   el= -0.388707   Ekb= -3.785862   kbcos= -0.366464
   l= 2   rc=  1.791422   el=  0.001971   Ekb= -0.970471   kbcos= -0.009212
   l= 3   rc=  1.859892   el=  0.003065   Ekb= -0.399525   kbcos= -0.001223

KBgen: Total number of  Kleinman-Bylander projectors:   16
atom: -------------------------------------------------------------------------

atom: SANKEY-TYPE ORBITALS:
atom: Selected multiple-zeta basis: split     

SPLIT: Orbitals with angular momentum L= 0

SPLIT: Basis orbitals for state 2s

SPLIT: PAO cut-off radius determined from an
SPLIT: energy shift=  0.007350 Ry

   izeta = 1
                 lambda =    1.000000
                     rc =    4.632753
                 energy =   -1.002270
                kinetic =    0.855760
    potential(screened) =   -1.858031
       potential(ionic) =   -5.417575

   izeta = 2
                 rmatch =    3.431921
              splitnorm =    0.150000
                 energy =   -0.867111
                kinetic =    1.300804
    potential(screened) =   -2.167915
       potential(ionic) =   -5.962684

SPLIT: Orbitals with angular momentum L= 1

SPLIT: Basis orbitals for state 2p

SPLIT: PAO cut-off radius determined from an
SPLIT: energy shift=  0.007350 Ry

   izeta = 1
                 lambda =    1.000000
                     rc =    5.658549
                 energy =   -0.381140
                kinetic =    2.399701
    potential(screened) =   -2.780841
       potential(ionic) =   -6.206085

   izeta = 2
                 rmatch =    3.653288
              splitnorm =    0.150000
                 energy =   -0.249149
                kinetic =    3.542762
    potential(screened) =   -3.791911
       potential(ionic) =   -7.581078

POLgen: Perturbative polarization orbital with L=  2

POLgen: Polarization orbital for state 2p

   izeta = 1
                     rc =    5.658549
                 energy =    1.109913
                kinetic =    2.304789
    potential(screened) =   -1.194876
       potential(ionic) =   -4.013592
atom: Total number of Sankey-type orbitals: 13

atm_pop: Valence configuration (for local Pseudopot. screening):
 2s( 2.00)                                                            
 2p( 2.00)                                                            
Vna: chval, zval:    4.00000   4.00000

Vna:  Cut-off radius for the neutral-atom potential:   5.658549
comcore: Pseudo-core radius Rcore=  1.791422

atom: _________________________________________________________________________

prinput: Basis input ----------------------------------------------------------

PAO.BasisType split     

%block ChemicalSpeciesLabel
    1    5 B                       # Species index, atomic number, species label
    2    6 C                       # Species index, atomic number, species label
%endblock ChemicalSpeciesLabel

%block PAO.Basis                 # Define Basis set
B                     2                    # Species label, number of l-shells
 n=2   0   2                         # n, l, Nzeta 
   5.422      4.223   
   1.000      1.000   
 n=2   1   2 P   1                   # n, l, Nzeta, Polarization, NzetaPol
   6.790      4.609   
   1.000      1.000   
C                     2                    # Species label, number of l-shells
 n=2   0   2                         # n, l, Nzeta 
   4.633      3.432   
   1.000      1.000   
 n=2   1   2 P   1                   # n, l, Nzeta, Polarization, NzetaPol
   5.659      3.653   
   1.000      1.000   
%endblock PAO.Basis

prinput: ----------------------------------------------------------------------

coor:   Atomic-coordinates input format  =     Fractional

siesta: Atomic coordinates (Bohr) and species
siesta:     -0.02582   2.59549   0.00000  1        1
siesta:     -0.02582   5.28395   0.00000  1        2
siesta:     -2.35420  38.89134   0.00000  1        3
siesta:     -2.35420  41.57980   0.00000  1        4
siesta:     -4.68258  34.85847   0.00000  1        5
siesta:     -4.68258  37.54693   0.00000  1        6
siesta:      2.30256   6.62836   0.00000  1        7
siesta:      2.30256   9.31683   0.00000  1        8
siesta:      4.63094  10.66124   0.00000  1        9
siesta:      4.63094  13.34970   0.00000  1       10
siesta:      6.95932  14.69411   0.00000  1       11
siesta:      6.95932  17.38257   0.00000  1       12
siesta:      9.28770  18.72698   0.00000  1       13
siesta:      9.28770  21.41544   0.00000  1       14
siesta:     11.61608  22.75985   0.00000  1       15
siesta:     11.61608  25.44831   0.00000  1       16
siesta:    -11.66772  22.75985   0.00000  1       17
siesta:    -11.66772  25.44831   0.00000  1       18
siesta:     -9.33934  26.79272   0.00000  1       19
siesta:     -9.33934  29.48119   0.00000  1       20
siesta:     -7.01096  30.82560   0.00000  1       21
siesta:     -7.01096  33.51406   0.00000  1       22
siesta:     -0.02582  42.92421   0.00000  1       23
siesta:     -0.02582  45.61267   0.00000  1       24
siesta:      2.30256  38.89134   0.00000  2       25
siesta:      2.30256  41.57980   0.00000  2       26
siesta:      4.63094  34.85847   0.00000  2       27
siesta:      4.63094  37.54693   0.00000  2       28
siesta:      6.95932  30.82560   0.00000  2       29
siesta:      6.95932  33.51406   0.00000  2       30
siesta:      9.28770  26.79272   0.00000  2       31
siesta:      9.28770  29.48119   0.00000  2       32
siesta:     -2.35420   6.62836   0.00000  2       33
siesta:     -2.35420   9.31683   0.00000  2       34
siesta:     -0.02582  10.66124   0.00000  2       35
siesta:     -0.02582  13.34970   0.00000  2       36
siesta:      2.30256  14.69411   0.00000  2       37
siesta:      2.30256  17.38257   0.00000  2       38
siesta:      4.63094  18.72698   0.00000  2       39
siesta:      4.63094  21.41544   0.00000  2       40
siesta:      6.95932  22.75985   0.00000  2       41
siesta:      6.95932  25.44831   0.00000  2       42
siesta:     -4.68258  10.66124   0.00000  2       43
siesta:     -4.68258  13.34970   0.00000  2       44
siesta:     -2.35420  14.69411   0.00000  2       45
siesta:     -2.35420  17.38257   0.00000  2       46
siesta:     -0.02582  18.72698   0.00000  2       47
siesta:     -0.02582  21.41544   0.00000  2       48
siesta:      2.30256  22.75985   0.00000  2       49
siesta:      2.30256  25.44831   0.00000  2       50
siesta:     -7.01096  14.69411   0.00000  2       51
siesta:     -7.01096  17.38257   0.00000  2       52
siesta:     -4.68258  18.72698   0.00000  2       53
siesta:     -4.68258  21.41544   0.00000  2       54
siesta:     -2.35420  22.75985   0.00000  2       55
siesta:     -2.35420  25.44831   0.00000  2       56
siesta:     -9.33934  18.72698   0.00000  2       57
siesta:     -9.33934  21.41544   0.00000  2       58
siesta:     -7.01096  22.75985   0.00000  2       59
siesta:     -7.01096  25.44831   0.00000  2       60
siesta:      4.63094  26.79272   0.00000  2       61
siesta:      4.63094  29.48119   0.00000  2       62
siesta:     -0.02582  26.79272   0.00000  2       63
siesta:     -0.02582  29.48119   0.00000  2       64
siesta:     -4.68258  26.79272   0.00000  2       65
siesta:     -4.68258  29.48119   0.00000  2       66
siesta:      2.30256  30.82560   0.00000  2       67
siesta:      2.30256  33.51406   0.00000  2       68
siesta:     -2.35420  30.82560   0.00000  2       69
siesta:     -2.35420  33.51406   0.00000  2       70
siesta:     -0.02582  34.85847   0.00000  2       71
siesta:     -0.02582  37.54693   0.00000  2       72

siesta: System type = slab      

initatomlists: Number of atoms, orbitals, and projectors:     72   936  1152

siesta: ******************** Simulation parameters ****************************
siesta:
siesta: The following are some of the parameters of the simulation.
siesta: A complete list of the parameters used, including default values,
siesta: can be found in file out.fdf
siesta:
redata: Non-Collinear-spin run           =     F
redata: SpinPolarized (Up/Down) run      =     F
redata: Number of spin components        =     1
redata: Long output                      =     F
redata: Number of Atomic Species         =        2
redata: Charge density info will appear in .RHO file
redata: Write Mulliken Pop.              =     NO
redata: Mesh Cutoff                      =   200.0000  Ry
redata: Net charge of the system         =     0.0000 |e|
redata: Max. number of SCF Iter          =      500
redata: SCF convergence failure will abort job
redata: Performing Pulay mixing using    =    10 iterations
redata: Mix DM in first SCF step ?       =     F
redata: Write Pulay info on disk?        =     F
redata: Discard 1st Pulay DM after  kick =     F
redata: New DM Mixing Weight             =     0.0500
redata: New DM Occupancy tolerance       = 0.000000000001
redata: No kicks to SCF
redata: DM Mixing Weight for Kicks       =     0.5000
redata: DM Tolerance for SCF             =     0.000100
redata: Require Energy convergence for SCF =     F
redata: DM Energy tolerance for SCF      =     0.000100 eV
redata: Require Harris convergence for SCF =     F
redata: DM Harris energy tolerance for SCF =     0.000100 eV
redata: Using Saved Data (generic)   =     F
redata: Use continuation files for DM    =     T
redata: Neglect nonoverlap interactions  =     F
redata: Method of Calculation            =     Diagonalization
redata: Divide and Conquer               =     T
redata: Electronic Temperature           =     0.0019  Ry
redata: Fix the spin of the system       =     F
redata: Dynamics option                  =     Verlet MD run
redata: Initial MD time step             =        1
redata:   Final MD time step             =        1
redata: Length of MD time step           =     1.0000  fs
redata: Initial Temperature of MD run    =     0.0000  K
redata: Perform a MD quench              =     F
redata: ***********************************************************************
Total number of electrons:   264.000000
Total ionic charge:   264.000000

* ProcessorY, Blocksize:    2  24

k-point displ. along   1 input, could be:     0.50    0.00
k-point displ. along   2 input, could be:     0.50    0.00
 Kpoints in:          231 . Kpoints trimmed:          231

siesta: k-grid: Number of k-points =   231
siesta: k-grid: Cutoff (effective) =     5.000 Ang
siesta: k-grid: Supercell and displacements
siesta: k-grid:   21   0   0      0.500
siesta: k-grid:    0  21   0      0.500
siesta: k-grid:    0   0   1      0.000
Naive supercell factors:     2    2    2

superc: Internal auxiliary supercell:     2 x     2 x     2  =       8
superc: Number of atoms, orbitals, and projectors:    576   7488   9216

* Maximum dynamic memory allocated =     4 MB

siesta:                 ==============================
                            Begin MD step =      1
                        ==============================

superc: Internal auxiliary supercell:     2 x     2 x     2  =       8
superc: Number of atoms, orbitals, and projectors:    576   7488   9216

outcell: Unit cell vectors (Ang):
       12.804619    7.392750    0.000000
        0.000000   14.785500    0.000000
        0.000000    0.000000   10.000000

outcell: Cell vector modules (Ang)   :   14.785500   14.785500   10.000000
outcell: Cell angles (23,13,12) (deg):     90.0000     90.0000     60.0000
outcell: Cell volume (Ang**3)        :   1893.2269
New_DM. Step:     1
Initializing Density Matrix...

InitMesh: MESH =   120 x   120 x    90 =     1296000
InitMesh: Mesh cutoff (required, used) =   200.000   223.865 Ry

* Maximum dynamic memory allocated =   238 MB

stepf: Fermi-Dirac step function

siesta: Program's energy decomposition (eV):
siesta: Ebs     =     -5435.254169
siesta: Eions   =     15329.650002
siesta: Ena     =      4147.606580
siesta: Ekin    =      5112.466478
siesta: Enl     =       847.211787
siesta: DEna    =        -0.000007
siesta: DUscf   =         0.000000
siesta: DUext   =         0.000000
siesta: Exc     =     -4195.830073
siesta: eta*DQ  =         0.000000
siesta: Emadel  =         0.000000
siesta: Emeta   =         0.000000
siesta: Emolmec =         0.000000
siesta: Ekinion =         0.000000
siesta: Eharris =     -9250.444295
siesta: Etot    =     -9418.195237
siesta: FreeEng =     -9418.195237

siesta: iscf   Eharris(eV)      E_KS(eV)   FreeEng(eV)   dDmax  Ef(eV)
siesta:    1    -9250.4443    -9418.1952    -9418.1952  7.6183 -8.5313
timer: Routine,Calls,Time,% = IterSCF        1    3523.386  99.67
elaps: Routine,Calls,Wall,% = IterSCF        1     441.341  99.66
siesta:    2   -14920.5725    -8320.1036    -8320.1498 15.3350 -6.6991
siesta:    3    -9416.2192    -9210.9221    -9210.9345  1.5702 -5.3523
siesta:    4    -9275.7502    -9164.7861    -9164.7877  1.5223 -4.9164
siesta:    5    -9146.0966    -9117.9134    -9117.9449  1.4091 -4.8294
siesta:    6    -9112.3240    -9091.1191    -9091.1592  1.2225 -4.7032
siesta:    7    -9097.2772    -9076.2866    -9076.3297  1.1039 -4.6318
siesta:    8    -9093.7855    -9059.0572    -9059.0880  0.7982 -4.9584
siesta:    9    -9086.1728    -9053.1127    -9053.1530  0.6025 -4.8335
siesta:   10    -9085.9199    -9053.7235    -9053.7528  0.5944 -4.8374
siesta:   11    -9084.3293    -9059.7416    -9059.7699  0.5127 -4.7032
siesta:   12    -9083.6854    -9059.9937    -9060.0521  0.5929 -4.5689
siesta:   13    -9083.6190    -9059.1415    -9059.2295  0.4140 -4.6809
siesta:   14    -9082.3835    -9064.0072    -9064.0612  0.1642 -4.7584
siesta:   15    -9082.4214    -9065.9481    -9066.0216  0.2159 -4.8244
siesta:   16    -9082.2901    -9069.3549    -9069.3980  0.1896 -4.8919
siesta:   17    -9082.0409    -9074.7108    -9074.7522  0.2497 -4.8517
siesta:   18    -9081.8166    -9076.4212    -9076.5163  0.2659 -4.8288
siesta:   19    -9081.7465    -9078.7311    -9078.8277  0.1852 -4.8582
siesta:   20    -9081.8379    -9078.1750    -9078.2576  0.1606 -4.8904
siesta:   21    -9081.7473    -9079.1937    -9079.2575  0.2392 -4.8401
siesta:   22    -9081.7333    -9079.8811    -9079.9706  0.0996 -4.8726
siesta:   23    -9081.6865    -9080.3424    -9080.4108  0.0975 -4.8576
siesta:   24    -9081.6692    -9080.3018    -9080.3772  0.0964 -4.8228
siesta:   25    -9081.7107    -9079.5074    -9079.5971  0.0717 -4.8472
siesta:   26    -9081.6735    -9079.6770    -9079.7476  0.0293 -4.8299
siesta:   27    -9081.6725    -9079.5788    -9079.6523  0.0248 -4.8290
siesta:   28    -9081.6667    -9079.6246    -9079.6985  0.0220 -4.8290
siesta:   29    -9081.6605    -9080.2326    -9080.3091  0.0377 -4.8338
siesta:   30    -9081.6602    -9080.7793    -9080.8629  0.0419 -4.8353
siesta:   31    -9081.6650    -9081.2147    -9081.2996  0.0151 -4.8475
siesta:   32    -9081.6633    -9081.3243    -9081.3990  0.0128 -4.8449
siesta:   33    -9081.6606    -9081.3971    -9081.4730  0.0046 -4.8420
siesta:   34    -9081.6603    -9081.5786    -9081.6567  0.0059 -4.8391
siesta:   35    -9081.6607    -9081.6093    -9081.6878  0.0027 -4.8395
siesta:   36    -9081.6612    -9081.6594    -9081.7375  0.0024 -4.8410
siesta:   37    -9081.6610    -9081.7167    -9081.7941  0.0017 -4.8408
siesta:   38    -9081.6610    -9081.7329    -9081.8105  0.0015 -4.8411
siesta:   39    -9081.6611    -9081.7044    -9081.7819  0.0006 -4.8415
siesta:   40    -9081.6608    -9081.7076    -9081.7851  0.0014 -4.8408
siesta:   41    -9081.6610    -9081.6939    -9081.7716  0.0005 -4.8411
siesta:   42    -9081.6610    -9081.6884    -9081.7659  0.0004 -4.8408
siesta:   43    -9081.6610    -9081.6822    -9081.7597  0.0002 -4.8407
siesta:   44    -9081.6611    -9081.6794    -9081.7569  0.0001 -4.8408

siesta: E_KS(eV) =            -9081.6780

siesta: E_KS - E_eggbox =     -9081.6780

siesta: Atomic forces (eV/Ang):
----------------------------------------
   Tot   -0.143169   -0.096346    0.000000
----------------------------------------
   Max  557.088177
   Res  134.931606    sqrt( Sum f_i^2 / 3N )
----------------------------------------
   Max  557.088177    constrained

Stress-tensor-Voigt (kbar):     -712.64    -2474.90       -0.64       -4.71        0.00        0.00
(Free)E + p*V (eV/cell)    -7825.9896
Target enthalpy (eV/cell)    -9081.7555

siesta: Stress tensor (static) (eV/Ang**3):
        -0.444788   -0.002936    0.000000
        -0.002937   -1.544696    0.000000
         0.000000    0.000000   -0.000398

siesta: Pressure (static):       1062.72553238  kBar

siesta: Stress tensor (total) (eV/Ang**3):
        -0.444788   -0.002936    0.000000
        -0.002937   -1.544696    0.000000
         0.000000    0.000000   -0.000398

siesta: Pressure (total):       1062.72553238  kBar

siesta: Temp_ion =       0.000 K

* Maximum dynamic memory allocated =   256 MB
Computing bands...

siesta: Program's energy decomposition (eV):
siesta: Ebs     =     -4037.440595
siesta: Eions   =     15329.650002
siesta: Ena     =      4147.606580
siesta: Ekin    =      7887.832940
siesta: Enl     =      -773.497045
siesta: DEna    =      -755.066726
siesta: DUscf   =       103.268966
siesta: DUext   =         0.000000
siesta: Exc     =     -4362.172739
siesta: eta*DQ  =         0.000000
siesta: Emadel  =         0.000000
siesta: Emeta   =         0.000000
siesta: Emolmec =         0.000000
siesta: Ekinion =         0.000000
siesta: Eharris =     -9081.661077
siesta: Etot    =     -9081.678027
siesta: FreeEng =     -9081.755489

siesta: Final energy (eV):
siesta:  Band Struct. =   -4037.440595
siesta:       Kinetic =    7887.832940
siesta:       Hartree =   25937.730027
siesta:    Ext. field =       0.000000
siesta:   Exch.-corr. =   -4362.172739
siesta:  Ion-electron =  -59462.536610
siesta:       Ion-ion =   20917.468355
siesta:       Ekinion =       0.000000
siesta:         Total =   -9081.678027

siesta: Atomic forces (eV/Ang):
siesta:      1    0.479428  410.259111    0.000000
siesta:      2    4.685294 -108.189242    0.000000
siesta:      3   -5.570600  109.039567    0.000000
siesta:      4   -1.868230 -395.183511    0.000000
siesta:      5  -17.217593    1.558892    0.000000
siesta:      6  -18.186310 -394.702483    0.000000
siesta:      7    1.887425  395.162307    0.000000
siesta:      8    5.520320 -109.011606    0.000000
siesta:      9   18.183852  394.742120    0.000000
siesta:     10   17.214265   -1.568610    0.000000
siesta:     11    3.710485   -3.315152    0.000000
siesta:     12   -1.150438   -0.766348    0.000000
siesta:     13    4.392209   -2.082172    0.000000
siesta:     14    0.264392    1.657103    0.000000
siesta:     15    6.334361   -3.277112    0.000000
siesta:     16    2.517711    3.746644    0.000000
siesta:     17   -2.482666   -3.738622    0.000000
siesta:     18   -6.322288    3.278259    0.000000
siesta:     19   -0.262517   -1.659317    0.000000
siesta:     20   -4.405849    2.073492    0.000000
siesta:     21    1.165282    0.775921    0.000000
siesta:     22   -3.719629    3.314634    0.000000
siesta:     23   -4.691696  108.163501    0.000000
siesta:     24   -0.516003 -410.269947    0.000000
siesta:     25    7.282045  127.623942    0.000000
siesta:     26    3.633441 -542.685108    0.000000
siesta:     27   23.741798   -2.372813    0.000000
siesta:     28   32.982487 -403.623696    0.000000
siesta:     29    2.227974    0.814868    0.000000
siesta:     30   -2.332797    2.606669    0.000000
siesta:     31   -0.336640    3.381545    0.000000
siesta:     32   -0.742746   -0.693836    0.000000
siesta:     33   -3.635277  542.695514    0.000000
siesta:     34   -7.311466 -127.622850    0.000000
siesta:     35   17.087377  557.030776    0.000000
siesta:     36   -6.181415 -130.705010    0.000000
siesta:     37   39.757888  555.369135    0.000000
siesta:     38   20.029887   -4.550665    0.000000
siesta:     39   -3.288090    2.437001    0.000000
siesta:     40    0.210395    0.698089    0.000000
siesta:     41   -3.873892    1.119584    0.000000
siesta:     42   -1.615999   -0.183948    0.000000
siesta:     43  -32.935791  403.590259    0.000000
siesta:     44  -23.759796    2.396287    0.000000
siesta:     45  -31.632824  410.313412    0.000000
siesta:     46  -21.001442   -1.586286    0.000000
siesta:     47   -0.335368  422.054334    0.000000
siesta:     48   -0.112029    3.363768    0.000000
siesta:     49   -0.996973   -0.246496    0.000000
siesta:     50   -1.289762    0.349961    0.000000
siesta:     51    2.316709   -2.598834    0.000000
siesta:     52   -2.214244   -0.818308    0.000000
siesta:     53    1.183676    1.346117    0.000000
siesta:     54   -1.117790   -0.093591    0.000000
siesta:     55    1.279171   -0.335821    0.000000
siesta:     56    0.992065    0.246600    0.000000
siesta:     57    0.745610    0.701945    0.000000
siesta:     58    0.339083   -3.378347    0.000000
siesta:     59    1.608702    0.195155    0.000000
siesta:     60    3.873969   -1.121928    0.000000
siesta:     61    1.128283    0.083580    0.000000
siesta:     62   -1.195585   -1.354365    0.000000
siesta:     63    0.088039   -3.356657    0.000000
siesta:     64    0.353641 -422.071535    0.000000
siesta:     65   -0.209259   -0.688630    0.000000
siesta:     66    3.261847   -2.454508    0.000000
siesta:     67   20.990993    1.588257    0.000000
siesta:     68   31.591146 -410.249633    0.000000
siesta:     69  -20.049804    4.562444    0.000000
siesta:     70  -39.721110 -555.450361    0.000000
siesta:     71    6.191147  130.658384    0.000000
siesta:     72  -17.111648 -557.088177    0.000000
siesta: ----------------------------------------
siesta:    Tot   -0.143169   -0.096346    0.000000

siesta: Stress tensor (static) (eV/Ang**3):
siesta:    -0.444788   -0.002936    0.000000
siesta:    -0.002937   -1.544696    0.000000
siesta:     0.000000    0.000000   -0.000398

siesta: Cell volume =       1893.226884 Ang**3

siesta: Pressure (static):
siesta:                Solid            Molecule  Units
siesta:           0.00722412          0.10247510  Ry/Bohr**3
siesta:           0.66329394          9.40891562  eV/Ang**3
siesta:        1062.72553238      15074.90770667  kBar
(Free)E+ p_basis*V_orbitals  =       -9043.434991
(Free)Eharris+ p_basis*V_orbitals  =       -9043.416633

siesta: Electric dipole (a.u.)  =    0.000000    0.000000    0.000000
siesta: Electric dipole (Debye) =    0.000000    0.000000    0.000000

* Maximum dynamic memory allocated : Node    0 =   256 MB
* Maximum dynamic memory allocated : Node    1 =    90 MB
* Maximum dynamic memory allocated : Node    2 =    93 MB
* Maximum dynamic memory allocated : Node    3 =   242 MB
* Maximum dynamic memory allocated : Node    4 =   227 MB
* Maximum dynamic memory allocated : Node    5 =    83 MB
* Maximum dynamic memory allocated : Node    6 =    84 MB
* Maximum dynamic memory allocated : Node    7 =   206 MB

* Maximum memory occured during matrixMtoO                    

timer: CPU execution times:
timer:  Routine       Calls   Time/call    Tot.time        %
timer:  siesta            1  153142.718  153142.718   100.00
timer:  Setup             1       3.833       3.833     0.00
timer:  bands             3     244.120     732.359     0.48
timer:  writewave         1       0.042       0.042     0.00
timer:  KSV_init          1       0.008       0.008     0.00
timer:  IterMD            1  152401.247  152401.247    99.52
timer:  hsparse           1       0.518       0.518     0.00
timer:  overlap           1       7.212       7.212     0.00
timer:  IterSCF          44    3458.458  152172.139    99.37
timer:  kinefsm           2       3.757       7.514     0.00
timer:  nlefsm            2      20.946      41.893     0.03
timer:  DHSCF            45     118.331    5324.874     3.48
timer:  DHSCF1            1       0.994       0.994     0.00
timer:  DHSCF2            1      44.320      44.320     0.03
timer:  REORD           362       0.005       1.786     0.00
timer:  POISON           46       0.868      39.927     0.03
timer:  DHSCF3           45     116.361    5236.257     3.42
timer:  rhoofd           45      24.721    1112.466     0.73
timer:  cellXC           45       3.286     147.863     0.10
timer:  vmat             45      55.873    2514.296     1.64
timer:  MolMec            2       0.000       0.000     0.00
timer:  diagon           44    3339.005  146916.228    95.93
timer:  c-eigval      10285       6.046   62185.933    40.61
timer:  c-buildHS     10285       0.055     565.124     0.37
timer:  cdiag         20449       6.185  126477.696    82.59
timer:  cdiag1        20449       0.385    7865.545     5.14
timer:  cdiag2        20449       1.769   36169.803    23.62
timer:  cdiag3        20449       3.746   76604.777    50.02
timer:  cdiag4        20449       0.158    3231.822     2.11
timer:  c-eigvec      10164       6.427   65328.272    42.66
timer:  c-buildD      10164       1.976   20083.303    13.11
timer:  DHSCF4            1      42.396      42.396     0.03
timer:  dfscf             1      39.576      39.576     0.03
timer:  overfsm           1       0.457       0.457     0.00
timer:  optical           1       4.641       4.641     0.00
  

elaps: ELAPSED times:
elaps:  Routine       Calls   Time/call    Tot.time        %
elaps:  siesta            1   19178.978   19178.978   100.00
elaps:  Setup             1       0.499       0.499     0.00
elaps:  bands             3      30.591      91.772     0.48
elaps:  writewave         1       0.006       0.006     0.00
elaps:  KSV_init          1       0.001       0.001     0.00
elaps:  IterMD            1   19086.095   19086.095    99.52
elaps:  hsparse           1       0.065       0.065     0.00
elaps:  overlap           1       0.901       0.901     0.00
elaps:  IterSCF          44     433.126   19057.543    99.37
elaps:  kinefsm           2       0.468       0.937     0.00
elaps:  nlefsm            2       2.847       5.695     0.03
elaps:  DHSCF            45      14.946     672.583     3.51
elaps:  DHSCF1            1       0.126       0.126     0.00
elaps:  DHSCF2            1       5.550       5.550     0.03
elaps:  REORD           362       0.001       0.242     0.00
elaps:  POISON           46       0.109       5.026     0.03
elaps:  DHSCF3           45      14.573     655.783     3.42
elaps:  rhoofd           45       7.011     315.476     1.64
elaps:  cellXC           45       0.411      18.513     0.10
elaps:  vmat             45       6.998     314.892     1.64
elaps:  MolMec            2       0.000       0.000     0.00
elaps:  diagon           44     418.162   18399.110    95.93
elaps:  c-eigval      10285       0.757    7787.649    40.61
elaps:  c-buildHS     10285       0.007      77.029     0.40
elaps:  cdiag         20449       0.770   15750.381    82.12
elaps:  cdiag1        20449       0.048     983.045     5.13
elaps:  cdiag2        20449       0.222    4530.601    23.62
elaps:  cdiag3        20449       0.470    9606.030    50.09
elaps:  cdiag4        20449       0.020     404.328     2.11
elaps:  c-eigvec      10164       0.797    8100.846    42.24
elaps:  c-buildD      10164       0.255    2595.461    13.53
elaps:  DHSCF4            1      11.019      11.019     0.06
elaps:  dfscf             1      10.442      10.442     0.05
elaps:  overfsm           1       0.056       0.056     0.00
elaps:  optical           1       0.001       0.001     0.00
  
>> End of run:  23-APR-2016  22:36:23
