Siesta Version:                                        siesta-3.2-pl-3
Architecture  : x86_64-unknown-linux-gnu--unknown
Compiler flags: mpiifort -g -O2 -fPIC -xSSE4.1 -fp-model source -shared-intel 
PARALLEL version

* Running on    8 nodes in parallel
>> Start of run:  15-APR-2016   9:36:02

                           ***********************       
                           *  WELCOME TO SIESTA  *       
                           ***********************       

reinit: Reading from standard input
************************** Dump of input data file ****************************
#(1) General system descriptors
SystemName            GRP_doping    # Descriptive name of the system
SystemLabel           GRP_doping    # Short name for naming files
%include STRUCT.fdf
%include KPT.fdf
%include BASIS.fdf
#%include TS.fdf # for transiesta calculation
#(4) DFT, Grid, SCF
XC.functional         GGA           # LDA or GGA (default = LDA)
XC.authors            PBE           # CA (Ceperley-Aldr) = PZ
                                    #    (Perdew-Zunger) - LDA - Default
                                    # PW92 (Perdew-Wang-92) - LDA
                                    # PBE (Perdew-Burke-Ernzerhof) - GGA
MeshCutoff            200.000000    Ry      # Default: 50.0 Ry ~ 0.444 Bohr
                                    #         100.0 Ry ~ 0.314 Bohr
MaxSCFIterations      500           # Default: 50
DM.MixingWeight       0.05          # Default: 0.25
DM.NumberPulay        10            # Default: 0
DM.PulayOnFile        F             # SystemLabel.P1, SystemLabel.P2
DM.Tolerance          1.d-4         # Default: 1.d-4
DM.UseSaveDM          .true.        # because of the bug
SCFMustConverge       .true.
NeglNonOverlapInt     F             # Default: F
#(5) Eigenvalue problem: order-N or diagonalization
SolutionMethod        Diagon        # or Transiesta
ElectronicTemperature 300.0 K       # Default: 300.0 K
#(6) Molecular dynamics and relaxations
#MD.TypeOfRun          CG            # Type of dynamics:
#MD.VariableCell       F
#MD.NumCGsteps         0           # 0 for single-point / 100 for gopt
#MD.MaxCGDispl         0.2 Bohr      # Default: 0.2 Bohr
#MD.MaxForceTol        0.02 eV/Ang   # Default: 0.04 eV/Ang
#MD.MaxStressTol       1.0 GPa       # Default: 1.0 GPa
# Geometry Constraints
#%block GeometryConstraints
#	position from 1 to 44
#%endblock GeometryConstraints
BandLinesScale   pi/a
%block BandLines
 1   0.00000000  0.00000000  0.00000000
50   0.00000000  0.07809418  0.00000000
50   0.04509075  0.07809242  0.00000000
20   0.00000000  0.00000000  0.00000000
%endblock BandLines
************************** End of input data file *****************************

reinit: -----------------------------------------------------------------------
reinit: System Name: GRP_doping
reinit: -----------------------------------------------------------------------
reinit: System Label: GRP_doping                                                  
reinit: -----------------------------------------------------------------------

initatom: Reading input for the pseudopotentials and atomic orbitals ----------
 Species number:            1  Label: N Atomic number:           7
 Species number:            2  Label: C Atomic number:           6
Ground state valence configuration:   2s02  2p03
Reading pseudopotential information in formatted form from N.psf

Valence configuration for pseudopotential generation:
2s( 2.00) rc: 1.48
2p( 3.00) rc: 1.48
3d( 0.00) rc: 1.48
4f( 0.00) rc: 1.48
Ground state valence configuration:   2s02  2p02
Reading pseudopotential information in formatted form from C.psf

Valence configuration for pseudopotential generation:
2s( 2.00) rc: 1.54
2p( 2.00) rc: 1.54
3d( 0.00) rc: 1.54
4f( 0.00) rc: 1.54
For N, standard SIESTA heuristics set lmxkb to 3
 (one more than the basis l, including polarization orbitals).
Use PS.lmax or PS.KBprojectors blocks to override.
For C, standard SIESTA heuristics set lmxkb to 3
 (one more than the basis l, including polarization orbitals).
Use PS.lmax or PS.KBprojectors blocks to override.

<basis_specs>
===============================================================================
N                    Z=   7    Mass=  14.010        Charge= 0.17977+309
Lmxo=1 Lmxkb= 3    BasisType=split      Semic=F
L=0  Nsemic=0  Cnfigmx=2
          n=1  nzeta=2  polorb=0
            splnorm:   0.15000    
               vcte:    0.0000    
               rinn:    0.0000    
                rcs:    0.0000      0.0000    
            lambdas:    1.0000      1.0000    
L=1  Nsemic=0  Cnfigmx=2
          n=1  nzeta=2  polorb=1
            splnorm:   0.15000    
               vcte:    0.0000    
               rinn:    0.0000    
                rcs:    0.0000      0.0000    
            lambdas:    1.0000      1.0000    
-------------------------------------------------------------------------------
L=0  Nkbl=1  erefs: 0.17977+309
L=1  Nkbl=1  erefs: 0.17977+309
L=2  Nkbl=1  erefs: 0.17977+309
L=3  Nkbl=1  erefs: 0.17977+309
===============================================================================
</basis_specs>

atom: Called for N                     (Z =   7)

read_vps: Pseudopotential generation method:
read_vps: ATM3      Troullier-Martins                       
Total valence charge:    5.00000

read_vps: Pseudopotential includes a core correction:
read_vps: Pseudo-core for xc-correction

xc_check: Exchange-correlation functional:
xc_check: GGA Perdew, Burke & Ernzerhof 1996
V l=0 = -2*Zval/r beyond r=  1.4606
V l=1 = -2*Zval/r beyond r=  1.4606
V l=2 = -2*Zval/r beyond r=  1.4606
V l=3 = -2*Zval/r beyond r=  1.4606
All V_l potentials equal beyond r=  1.4606
This should be close to max(r_c) in ps generation
All pots = -2*Zval/r beyond r=  1.4606

VLOCAL1: 99.0% of the norm of Vloc inside     20.347 Ry
VLOCAL1: 99.9% of the norm of Vloc inside     46.372 Ry
atom: Maximum radius for 4*pi*r*r*local-pseudopot. charge    1.76189
atom: Maximum radius for r*vlocal+2*Zval:    1.53550
GHOST: No ghost state for L =  0
GHOST: No ghost state for L =  1
GHOST: No ghost state for L =  2
GHOST: No ghost state for L =  3

KBgen: Kleinman-Bylander projectors: 
   l= 0   rc=  1.634559   el= -1.363963   Ekb=  5.296955   kbcos=  0.335621
   l= 1   rc=  1.614250   el= -0.521451   Ekb= -5.259161   kbcos= -0.433408
   l= 2   rc=  1.718383   el=  0.001991   Ekb= -1.271464   kbcos= -0.007566
   l= 3   rc=  1.761893   el=  0.003093   Ekb= -0.494769   kbcos= -0.001015

KBgen: Total number of  Kleinman-Bylander projectors:   16
atom: -------------------------------------------------------------------------

atom: SANKEY-TYPE ORBITALS:
atom: Selected multiple-zeta basis: split     

SPLIT: Orbitals with angular momentum L= 0

SPLIT: Basis orbitals for state 2s

SPLIT: PAO cut-off radius determined from an
SPLIT: energy shift=  0.007350 Ry

   izeta = 1
                 lambda =    1.000000
                     rc =    4.071465
                 energy =   -1.356470
                kinetic =    1.176977
    potential(screened) =   -2.533447
       potential(ionic) =   -8.057990

   izeta = 2
                 rmatch =    2.905100
              splitnorm =    0.150000
                 energy =   -1.158343
                kinetic =    1.813009
    potential(screened) =   -2.971352
       potential(ionic) =   -8.901931

SPLIT: Orbitals with angular momentum L= 1

SPLIT: Basis orbitals for state 2p

SPLIT: PAO cut-off radius determined from an
SPLIT: energy shift=  0.007350 Ry

   izeta = 1
                 lambda =    1.000000
                     rc =    4.972977
                 energy =   -0.513884
                kinetic =    3.441732
    potential(screened) =   -3.955616
       potential(ionic) =   -9.287901

   izeta = 2
                 rmatch =    3.054066
              splitnorm =    0.150000
                 energy =   -0.318226
                kinetic =    5.125348
    potential(screened) =   -5.443573
       potential(ionic) =  -11.380999

POLgen: Perturbative polarization orbital with L=  2

POLgen: Polarization orbital for state 2p

   izeta = 1
                     rc =    4.972977
                 energy =    1.607437
                kinetic =    3.268125
    potential(screened) =   -1.660688
       potential(ionic) =   -5.973652
atom: Total number of Sankey-type orbitals: 13

atm_pop: Valence configuration (for local Pseudopot. screening):
 2s( 2.00)                                                            
 2p( 3.00)                                                            
Vna: chval, zval:    5.00000   5.00000

Vna:  Cut-off radius for the neutral-atom potential:   4.972977
comcore: Pseudo-core radius Rcore=  1.554824

atom: _________________________________________________________________________

<basis_specs>
===============================================================================
C                    Z=   6    Mass=  12.010        Charge= 0.17977+309
Lmxo=1 Lmxkb= 3    BasisType=split      Semic=F
L=0  Nsemic=0  Cnfigmx=2
          n=1  nzeta=2  polorb=0
            splnorm:   0.15000    
               vcte:    0.0000    
               rinn:    0.0000    
                rcs:    0.0000      0.0000    
            lambdas:    1.0000      1.0000    
L=1  Nsemic=0  Cnfigmx=2
          n=1  nzeta=2  polorb=1
            splnorm:   0.15000    
               vcte:    0.0000    
               rinn:    0.0000    
                rcs:    0.0000      0.0000    
            lambdas:    1.0000      1.0000    
-------------------------------------------------------------------------------
L=0  Nkbl=1  erefs: 0.17977+309
L=1  Nkbl=1  erefs: 0.17977+309
L=2  Nkbl=1  erefs: 0.17977+309
L=3  Nkbl=1  erefs: 0.17977+309
===============================================================================
</basis_specs>

atom: Called for C                     (Z =   6)

read_vps: Pseudopotential generation method:
read_vps: ATM3      Troullier-Martins                       
Total valence charge:    4.00000

read_vps: Pseudopotential includes a core correction:
read_vps: Pseudo-core for xc-correction

xc_check: Exchange-correlation functional:
xc_check: GGA Perdew, Burke & Ernzerhof 1996
V l=0 = -2*Zval/r beyond r=  1.5227
V l=1 = -2*Zval/r beyond r=  1.5227
V l=2 = -2*Zval/r beyond r=  1.5227
V l=3 = -2*Zval/r beyond r=  1.5038
All V_l potentials equal beyond r=  1.5227
This should be close to max(r_c) in ps generation
All pots = -2*Zval/r beyond r=  1.5227

VLOCAL1: 99.0% of the norm of Vloc inside     18.722 Ry
VLOCAL1: 99.9% of the norm of Vloc inside     42.668 Ry
atom: Maximum radius for 4*pi*r*r*local-pseudopot. charge    1.83678
atom: Maximum radius for r*vlocal+2*Zval:    1.58088
GHOST: No ghost state for L =  0
GHOST: No ghost state for L =  1
GHOST: No ghost state for L =  2
GHOST: No ghost state for L =  3

KBgen: Kleinman-Bylander projectors: 
   l= 0   rc=  1.704034   el= -1.009801   Ekb=  5.335044   kbcos=  0.316824
   l= 1   rc=  1.704034   el= -0.388707   Ekb= -3.785862   kbcos= -0.366464
   l= 2   rc=  1.791422   el=  0.001971   Ekb= -0.970471   kbcos= -0.009212
   l= 3   rc=  1.859892   el=  0.003065   Ekb= -0.399525   kbcos= -0.001223

KBgen: Total number of  Kleinman-Bylander projectors:   16
atom: -------------------------------------------------------------------------

atom: SANKEY-TYPE ORBITALS:
atom: Selected multiple-zeta basis: split     

SPLIT: Orbitals with angular momentum L= 0

SPLIT: Basis orbitals for state 2s

SPLIT: PAO cut-off radius determined from an
SPLIT: energy shift=  0.007350 Ry

   izeta = 1
                 lambda =    1.000000
                     rc =    4.632753
                 energy =   -1.002270
                kinetic =    0.855760
    potential(screened) =   -1.858031
       potential(ionic) =   -5.417575

   izeta = 2
                 rmatch =    3.431921
              splitnorm =    0.150000
                 energy =   -0.867111
                kinetic =    1.300804
    potential(screened) =   -2.167915
       potential(ionic) =   -5.962684

SPLIT: Orbitals with angular momentum L= 1

SPLIT: Basis orbitals for state 2p

SPLIT: PAO cut-off radius determined from an
SPLIT: energy shift=  0.007350 Ry

   izeta = 1
                 lambda =    1.000000
                     rc =    5.658549
                 energy =   -0.381140
                kinetic =    2.399701
    potential(screened) =   -2.780841
       potential(ionic) =   -6.206085

   izeta = 2
                 rmatch =    3.653288
              splitnorm =    0.150000
                 energy =   -0.249149
                kinetic =    3.542762
    potential(screened) =   -3.791911
       potential(ionic) =   -7.581078

POLgen: Perturbative polarization orbital with L=  2

POLgen: Polarization orbital for state 2p

   izeta = 1
                     rc =    5.658549
                 energy =    1.109913
                kinetic =    2.304789
    potential(screened) =   -1.194876
       potential(ionic) =   -4.013592
atom: Total number of Sankey-type orbitals: 13

atm_pop: Valence configuration (for local Pseudopot. screening):
 2s( 2.00)                                                            
 2p( 2.00)                                                            
Vna: chval, zval:    4.00000   4.00000

Vna:  Cut-off radius for the neutral-atom potential:   5.658549
comcore: Pseudo-core radius Rcore=  1.791422

atom: _________________________________________________________________________

prinput: Basis input ----------------------------------------------------------

PAO.BasisType split     

%block ChemicalSpeciesLabel
    1    7 N                       # Species index, atomic number, species label
    2    6 C                       # Species index, atomic number, species label
%endblock ChemicalSpeciesLabel

%block PAO.Basis                 # Define Basis set
N                     2                    # Species label, number of l-shells
 n=2   0   2                         # n, l, Nzeta 
   4.071      2.905   
   1.000      1.000   
 n=2   1   2 P   1                   # n, l, Nzeta, Polarization, NzetaPol
   4.973      3.054   
   1.000      1.000   
C                     2                    # Species label, number of l-shells
 n=2   0   2                         # n, l, Nzeta 
   4.633      3.432   
   1.000      1.000   
 n=2   1   2 P   1                   # n, l, Nzeta, Polarization, NzetaPol
   5.659      3.653   
   1.000      1.000   
%endblock PAO.Basis

prinput: ----------------------------------------------------------------------

coor:   Atomic-coordinates input format  =     Fractional

siesta: Atomic coordinates (Bohr) and species
siesta:     -0.02582  21.41544   0.00000  1        1
siesta:      2.30256  22.75985   0.00000  1        2
siesta:      2.30256  25.44831   0.00000  1        3
siesta:     -2.35420  22.75985   0.00000  1        4
siesta:     -2.35420  25.44831   0.00000  1        5
siesta:     -0.02582  26.79272   0.00000  1        6
siesta:     -0.02582  42.92421   0.00000  1        7
siesta:     -0.02582   2.59549   0.00000  2        8
siesta:     -0.02582   5.28395   0.00000  2        9
siesta:     -2.35420  38.89134   0.00000  2       10
siesta:     -2.35420  41.57980   0.00000  2       11
siesta:      2.30256  38.89134   0.00000  2       12
siesta:      2.30256  41.57980   0.00000  2       13
siesta:      4.63094  34.85847   0.00000  2       14
siesta:      4.63094  37.54693   0.00000  2       15
siesta:      6.95932  30.82560   0.00000  2       16
siesta:      6.95932  33.51406   0.00000  2       17
siesta:      9.28770  26.79272   0.00000  2       18
siesta:      9.28770  29.48119   0.00000  2       19
siesta:     -4.68258  34.85847   0.00000  2       20
siesta:     -4.68258  37.54693   0.00000  2       21
siesta:      2.30256   6.62836   0.00000  2       22
siesta:      2.30256   9.31683   0.00000  2       23
siesta:      4.63094  10.66124   0.00000  2       24
siesta:      4.63094  13.34970   0.00000  2       25
siesta:      6.95932  14.69411   0.00000  2       26
siesta:      6.95932  17.38257   0.00000  2       27
siesta:      9.28770  18.72698   0.00000  2       28
siesta:      9.28770  21.41544   0.00000  2       29
siesta:     11.61608  22.75985   0.00000  2       30
siesta:     11.61608  25.44831   0.00000  2       31
siesta:     -2.35420   6.62836   0.00000  2       32
siesta:     -2.35420   9.31683   0.00000  2       33
siesta:     -0.02582  10.66124   0.00000  2       34
siesta:     -0.02582  13.34970   0.00000  2       35
siesta:      2.30256  14.69411   0.00000  2       36
siesta:      2.30256  17.38257   0.00000  2       37
siesta:      4.63094  18.72698   0.00000  2       38
siesta:      4.63094  21.41544   0.00000  2       39
siesta:      6.95932  22.75985   0.00000  2       40
siesta:      6.95932  25.44831   0.00000  2       41
siesta:     -4.68258  10.66124   0.00000  2       42
siesta:     -4.68258  13.34970   0.00000  2       43
siesta:     -2.35420  14.69411   0.00000  2       44
siesta:     -2.35420  17.38257   0.00000  2       45
siesta:     -0.02582  18.72698   0.00000  2       46
siesta:     -7.01096  14.69411   0.00000  2       47
siesta:     -7.01096  17.38257   0.00000  2       48
siesta:     -4.68258  18.72698   0.00000  2       49
siesta:     -4.68258  21.41544   0.00000  2       50
siesta:     -9.33934  18.72698   0.00000  2       51
siesta:     -9.33934  21.41544   0.00000  2       52
siesta:     -7.01096  22.75985   0.00000  2       53
siesta:     -7.01096  25.44831   0.00000  2       54
siesta:    -11.66772  22.75985   0.00000  2       55
siesta:    -11.66772  25.44831   0.00000  2       56
siesta:     -9.33934  26.79272   0.00000  2       57
siesta:     -9.33934  29.48119   0.00000  2       58
siesta:      4.63094  26.79272   0.00000  2       59
siesta:      4.63094  29.48119   0.00000  2       60
siesta:     -0.02582  29.48119   0.00000  2       61
siesta:     -4.68258  26.79272   0.00000  2       62
siesta:     -4.68258  29.48119   0.00000  2       63
siesta:      2.30256  30.82560   0.00000  2       64
siesta:      2.30256  33.51406   0.00000  2       65
siesta:     -2.35420  30.82560   0.00000  2       66
siesta:     -2.35420  33.51406   0.00000  2       67
siesta:     -7.01096  30.82560   0.00000  2       68
siesta:     -7.01096  33.51406   0.00000  2       69
siesta:     -0.02582  34.85847   0.00000  2       70
siesta:     -0.02582  37.54693   0.00000  2       71
siesta:     -0.02582  45.61267   0.00000  2       72

siesta: System type = slab      

initatomlists: Number of atoms, orbitals, and projectors:     72   936  1152

siesta: ******************** Simulation parameters ****************************
siesta:
siesta: The following are some of the parameters of the simulation.
siesta: A complete list of the parameters used, including default values,
siesta: can be found in file out.fdf
siesta:
redata: Non-Collinear-spin run           =     F
redata: SpinPolarized (Up/Down) run      =     F
redata: Number of spin components        =     1
redata: Long output                      =     F
redata: Number of Atomic Species         =        2
redata: Charge density info will appear in .RHO file
redata: Write Mulliken Pop.              =     NO
redata: Mesh Cutoff                      =   200.0000  Ry
redata: Net charge of the system         =     0.0000 |e|
redata: Max. number of SCF Iter          =      500
redata: SCF convergence failure will abort job
redata: Performing Pulay mixing using    =    10 iterations
redata: Mix DM in first SCF step ?       =     F
redata: Write Pulay info on disk?        =     F
redata: Discard 1st Pulay DM after  kick =     F
redata: New DM Mixing Weight             =     0.0500
redata: New DM Occupancy tolerance       = 0.000000000001
redata: No kicks to SCF
redata: DM Mixing Weight for Kicks       =     0.5000
redata: DM Tolerance for SCF             =     0.000100
redata: Require Energy convergence for SCF =     F
redata: DM Energy tolerance for SCF      =     0.000100 eV
redata: Require Harris convergence for SCF =     F
redata: DM Harris energy tolerance for SCF =     0.000100 eV
redata: Using Saved Data (generic)   =     F
redata: Use continuation files for DM    =     T
redata: Neglect nonoverlap interactions  =     F
redata: Method of Calculation            =     Diagonalization
redata: Divide and Conquer               =     T
redata: Electronic Temperature           =     0.0019  Ry
redata: Fix the spin of the system       =     F
redata: Dynamics option                  =     Verlet MD run
redata: Initial MD time step             =        1
redata:   Final MD time step             =        1
redata: Length of MD time step           =     1.0000  fs
redata: Initial Temperature of MD run    =     0.0000  K
redata: Perform a MD quench              =     F
redata: ***********************************************************************
Total number of electrons:   295.000000
Total ionic charge:   295.000000

* ProcessorY, Blocksize:    2  24

k-point displ. along   1 input, could be:     0.50    0.00
k-point displ. along   2 input, could be:     0.50    0.00
 Kpoints in:          231 . Kpoints trimmed:          231

siesta: k-grid: Number of k-points =   231
siesta: k-grid: Cutoff (effective) =     5.000 Ang
siesta: k-grid: Supercell and displacements
siesta: k-grid:   21   0   0      0.500
siesta: k-grid:    0  21   0      0.500
siesta: k-grid:    0   0   1      0.000
Naive supercell factors:     2    2    2

superc: Internal auxiliary supercell:     2 x     2 x     2  =       8
superc: Number of atoms, orbitals, and projectors:    576   7488   9216

* Maximum dynamic memory allocated =     4 MB

siesta:                 ==============================
                            Begin MD step =      1
                        ==============================

superc: Internal auxiliary supercell:     2 x     2 x     2  =       8
superc: Number of atoms, orbitals, and projectors:    576   7488   9216

outcell: Unit cell vectors (Ang):
       12.804619    7.392750    0.000000
        0.000000   14.785500    0.000000
        0.000000    0.000000   10.000000

outcell: Cell vector modules (Ang)   :   14.785500   14.785500   10.000000
outcell: Cell angles (23,13,12) (deg):     90.0000     90.0000     60.0000
outcell: Cell volume (Ang**3)        :   1893.2269
New_DM. Step:     1
Initializing Density Matrix...

iodm: Reading Density Matrix from files

InitMesh: MESH =   120 x   120 x    90 =     1296000
InitMesh: Mesh cutoff (required, used) =   200.000   223.865 Ry

* Maximum dynamic memory allocated =   196 MB

stepf: Fermi-Dirac step function

siesta: Program's energy decomposition (eV):
siesta: Ebs     =     -4760.446288
siesta: Eions   =     19528.238980
siesta: Ena     =      4780.771150
siesta: Ekin    =      9412.141709
siesta: Enl     =      -746.340510
siesta: DEna    =      -778.666375
siesta: DUscf   =        93.918018
siesta: DUext   =         0.000000
siesta: Exc     =     -4494.080268
siesta: eta*DQ  =         0.000000
siesta: Emadel  =         0.000000
siesta: Emeta   =         0.000000
siesta: Emolmec =         0.000000
siesta: Ekinion =         0.000000
siesta: Eharris =    -11214.681567
siesta: Etot    =    -11260.495255
siesta: FreeEng =    -11260.495255

siesta: iscf   Eharris(eV)      E_KS(eV)   FreeEng(eV)   dDmax  Ef(eV)
siesta:    1   -11214.6816   -11260.4953   -11260.4953  0.8358 -4.1326
timer: Routine,Calls,Time,% = IterSCF        1    3413.102  99.61
elaps: Routine,Calls,Wall,% = IterSCF        1     427.515  99.60
siesta:    2   -11394.8375   -11176.7726   -11176.8226  1.1268 -4.4494
siesta:    3   -11209.1426   -11235.0223   -11235.0402  0.6878 -4.3563
siesta:    4   -11208.0941   -11231.9820   -11232.0314  0.5280 -4.3613
siesta:    5   -11206.9581   -11221.0309   -11221.0833  0.3562 -4.2668
siesta:    6   -11207.7270   -11210.1426   -11210.1835  0.3372 -4.3096
siesta:    7   -11206.1022   -11206.6171   -11206.6679  0.1942 -4.1708
siesta:    8   -11205.5615   -11203.7067   -11203.7856  0.1442 -4.1533
siesta:    9   -11204.9173   -11200.3872   -11200.4639  0.1359 -4.0992
siesta:   10   -11204.8413   -11200.5833   -11200.6465  0.1247 -4.0973
siesta:   11   -11204.7393   -11201.0988   -11201.1565  0.0731 -4.1303
siesta:   12   -11204.7251   -11201.0774   -11201.1409  0.0687 -4.1358
siesta:   13   -11204.7319   -11201.0106   -11201.0783  0.0715 -4.1240
siesta:   14   -11204.7016   -11202.5594   -11202.6220  0.0299 -4.1352
siesta:   15   -11204.6994   -11203.1213   -11203.1956  0.0211 -4.1355
siesta:   16   -11204.6982   -11203.7514   -11203.8247  0.0191 -4.1401
siesta:   17   -11204.6878   -11204.4663   -11204.5401  0.0118 -4.1465
siesta:   18   -11204.6922   -11204.3673   -11204.4423  0.0162 -4.1455
siesta:   19   -11204.6871   -11204.4328   -11204.5030  0.0065 -4.1474
siesta:   20   -11204.6871   -11204.4665   -11204.5401  0.0046 -4.1439
siesta:   21   -11204.6848   -11204.6503   -11204.7222  0.0045 -4.1436
siesta:   22   -11204.6847   -11204.7363   -11204.8102  0.0036 -4.1437
siesta:   23   -11204.6852   -11204.7306   -11204.8045  0.0011 -4.1441
siesta:   24   -11204.6850   -11204.7384   -11204.8117  0.0008 -4.1447
siesta:   25   -11204.6851   -11204.7207   -11204.7942  0.0005 -4.1449
siesta:   26   -11204.6849   -11204.7103   -11204.7837  0.0006 -4.1449
siesta:   27   -11204.6849   -11204.7055   -11204.7790  0.0006 -4.1450
siesta:   28   -11204.6850   -11204.6981   -11204.7716  0.0004 -4.1450
siesta:   29   -11204.6850   -11204.6860   -11204.7595  0.0002 -4.1451
siesta:   30   -11204.6850   -11204.6838   -11204.7573  0.0002 -4.1451
siesta:   31   -11204.6850   -11204.6817   -11204.7552  0.0001 -4.1451
siesta:   32   -11204.6850   -11204.6788   -11204.7523  0.0001 -4.1451
siesta:   33   -11204.6850   -11204.6815   -11204.7549  0.0001 -4.1451

siesta: E_KS(eV) =           -11204.6834

siesta: E_KS - E_eggbox =    -11204.6834

siesta: Atomic forces (eV/Ang):
----------------------------------------
   Tot   -0.105433   -0.065920    0.000000
----------------------------------------
   Max  569.337526
   Res  161.500517    sqrt( Sum f_i^2 / 3N )
----------------------------------------
   Max  569.337526    constrained

Stress-tensor-Voigt (kbar):     -687.99    -2840.83       -0.16        0.09        0.00        0.00
(Free)E + p*V (eV/cell)    -9814.7539
Target enthalpy (eV/cell)   -11204.7568

siesta: Stress tensor (static) (eV/Ang**3):
        -0.429406    0.000056    0.000000
         0.000056   -1.773090    0.000000
         0.000000    0.000000   -0.000098

siesta: Pressure (static):       1176.32717846  kBar

siesta: Stress tensor (total) (eV/Ang**3):
        -0.429406    0.000056    0.000000
         0.000056   -1.773090    0.000000
         0.000000    0.000000   -0.000098

siesta: Pressure (total):       1176.32717846  kBar

siesta: Temp_ion =       0.000 K

* Maximum dynamic memory allocated =   212 MB
Computing bands...

siesta: Program's energy decomposition (eV):
siesta: Ebs     =     -4765.402066
siesta: Eions   =     19528.238980
siesta: Ena     =      4780.771150
siesta: Ekin    =      9935.048316
siesta: Enl     =     -1233.700803
siesta: DEna    =      -754.974456
siesta: DUscf   =       100.800134
siesta: DUext   =         0.000000
siesta: Exc     =     -4504.388729
siesta: eta*DQ  =         0.000000
siesta: Emadel  =         0.000000
siesta: Emeta   =         0.000000
siesta: Emolmec =         0.000000
siesta: Ekinion =         0.000000
siesta: Eharris =    -11204.685000
siesta: Etot    =    -11204.683368
siesta: FreeEng =    -11204.756801

siesta: Final energy (eV):
siesta:  Band Struct. =   -4765.402066
siesta:       Kinetic =    9935.048316
siesta:       Hartree =   32508.944948
siesta:    Ext. field =       0.000000
siesta:   Exch.-corr. =   -4504.388729
siesta:  Ion-electron =  -74607.343917
siesta:       Ion-ion =   25463.056013
siesta:       Ekinion =       0.000000
siesta:         Total =  -11204.683368

siesta: Atomic forces (eV/Ang):
siesta:      1   -0.010522    0.199610    0.000000
siesta:      2    0.117737   -0.338491    0.000000
siesta:      3    0.192854    0.215722    0.000000
siesta:      4   -0.070960   -0.376023    0.000000
siesta:      5   -0.149819    0.254305    0.000000
siesta:      6   -0.004995    0.511789    0.000000
siesta:      7   -0.020082  121.027522    0.000000
siesta:      8   -0.013537  545.161011    0.000000
siesta:      9    0.010713 -127.396898    0.000000
siesta:     10    0.329606  126.294560    0.000000
siesta:     11  -18.271477 -552.532089    0.000000
siesta:     12   -0.359860  126.309225    0.000000
siesta:     13   18.253439 -552.521542    0.000000
siesta:     14   26.388767    6.926702    0.000000
siesta:     15   34.810630 -550.180294    0.000000
siesta:     16    2.418333    0.130773    0.000000
siesta:     17   -2.535419    1.520241    0.000000
siesta:     18    2.109717    1.991668    0.000000
siesta:     19   -1.157597    0.599951    0.000000
siesta:     20  -26.403127    6.921453    0.000000
siesta:     21  -34.822462 -550.152770    0.000000
siesta:     22   17.169570  549.039313    0.000000
siesta:     23   -1.466504 -126.926201    0.000000
siesta:     24   33.870717  549.399963    0.000000
siesta:     25   25.912922   -6.971751    0.000000
siesta:     26   -2.549608   -1.635144    0.000000
siesta:     27    2.341450   -0.124423    0.000000
siesta:     28   -1.177899   -0.559224    0.000000
siesta:     29    2.113380   -1.959654    0.000000
siesta:     30   -0.301979    7.241838    0.000000
siesta:     31   -0.297445   -7.223914    0.000000
siesta:     32  -17.196736  549.082539    0.000000
siesta:     33    1.440257 -126.909428    0.000000
siesta:     34    0.026321  543.809949    0.000000
siesta:     35    0.038028 -122.553886    0.000000
siesta:     36    8.906153  557.458671    0.000000
siesta:     37   23.861372   -3.958625    0.000000
siesta:     38   -2.644180    3.540368    0.000000
siesta:     39   -0.120141   -0.632735    0.000000
siesta:     40   -0.477609    1.020596    0.000000
siesta:     41   -0.360070   -0.972370    0.000000
siesta:     42  -33.880950  549.408930    0.000000
siesta:     43  -25.949517   -6.936544    0.000000
siesta:     44   -8.907716  557.498341    0.000000
siesta:     45  -23.919364   -3.933221    0.000000
siesta:     46    0.005046  569.337526    0.000000
siesta:     47    2.547434   -1.640441    0.000000
siesta:     48   -2.333517   -0.128924    0.000000
siesta:     49    2.634155    3.554597    0.000000
siesta:     50    0.111188   -0.642643    0.000000
siesta:     51    1.182566   -0.554027    0.000000
siesta:     52   -2.113958   -1.946654    0.000000
siesta:     53    0.475409    1.024638    0.000000
siesta:     54    0.340492   -0.984519    0.000000
siesta:     55    0.315025    7.242924    0.000000
siesta:     56    0.301407   -7.228137    0.000000
siesta:     57   -2.098767    1.982863    0.000000
siesta:     58    1.162466    0.592729    0.000000
siesta:     59   -0.366734    0.830392    0.000000
siesta:     60   -2.191869   -3.535485    0.000000
siesta:     61    0.007996 -563.953378    0.000000
siesta:     62    0.360539    0.827543    0.000000
siesta:     63    2.159745   -3.564472    0.000000
siesta:     64   22.620140    6.153193    0.000000
siesta:     65   20.253857 -558.208313    0.000000
siesta:     66  -22.648735    6.134023    0.000000
siesta:     67  -20.258035 -558.202039    0.000000
siesta:     68   -2.380228    0.142613    0.000000
siesta:     69    2.535606    1.532661    0.000000
siesta:     70    0.010037  128.707784    0.000000
siesta:     71    0.022804 -547.408718    0.000000
siesta:     72   -0.001890 -540.901472    0.000000
siesta: ----------------------------------------
siesta:    Tot   -0.105433   -0.065920    0.000000

siesta: Stress tensor (static) (eV/Ang**3):
siesta:    -0.429406    0.000056    0.000000
siesta:     0.000056   -1.773090    0.000000
siesta:     0.000000    0.000000   -0.000098

siesta: Cell volume =       1893.226884 Ang**3

siesta: Pressure (static):
siesta:                Solid            Molecule  Units
siesta:           0.00799635          0.12601594  Ry/Bohr**3
siesta:           0.73419774         11.57035522  eV/Ang**3
siesta:        1176.32717846      18537.95316273  kBar
(Free)E+ p_basis*V_orbitals  =      -11175.019928
(Free)Eharris+ p_basis*V_orbitals  =      -11175.023430

siesta: Electric dipole (a.u.)  =    0.000000    0.000000    0.000000
siesta: Electric dipole (Debye) =    0.000000    0.000000    0.000000

* Maximum dynamic memory allocated : Node    0 =   212 MB
* Maximum dynamic memory allocated : Node    1 =    74 MB
* Maximum dynamic memory allocated : Node    2 =    76 MB
* Maximum dynamic memory allocated : Node    3 =   201 MB
* Maximum dynamic memory allocated : Node    4 =   193 MB
* Maximum dynamic memory allocated : Node    5 =    71 MB
* Maximum dynamic memory allocated : Node    6 =    73 MB
* Maximum dynamic memory allocated : Node    7 =   177 MB

* Maximum memory occured during matrixMtoO                    

timer: CPU execution times:
timer:  Routine       Calls   Time/call    Tot.time        %
timer:  siesta            1  111454.936  111454.936   100.00
timer:  Setup             1       3.873       3.873     0.00
timer:  bands             3     243.412     730.235     0.66
timer:  writewave         1       0.041       0.041     0.00
timer:  KSV_init          1       0.006       0.006     0.00
timer:  IterMD            1  110715.529  110715.529    99.34
timer:  hsparse           1       0.285       0.285     0.00
timer:  overlap           1       5.476       5.476     0.00
timer:  IterSCF          33    3349.968  110548.930    99.19
timer:  kinefsm           2       2.857       5.715     0.01
timer:  nlefsm            2      17.915      35.829     0.03
timer:  DHSCF            34      82.919    2819.230     2.53
timer:  DHSCF1            1       0.743       0.743     0.00
timer:  DHSCF2            1      32.023      32.023     0.03
timer:  REORD           274       0.005       1.297     0.00
timer:  POISON           35       0.870      30.455     0.03
timer:  DHSCF3           34      81.038    2755.291     2.47
timer:  rhoofd           34      16.997     577.909     0.52
timer:  cellXC           34       3.249     110.463     0.10
timer:  vmat             34      37.783    1284.607     1.15
timer:  MolMec            2       0.000       0.001     0.00
timer:  diagon           33    3265.881  107774.083    96.70
timer:  c-eigval       7744       6.022   46632.903    41.84
timer:  c-buildHS      7744       0.048     368.912     0.33
timer:  cdiag         15367       6.156   94602.716    84.88
timer:  cdiag1        15367       0.384    5905.977     5.30
timer:  cdiag2        15367       1.769   27185.715    24.39
timer:  cdiag3        15367       3.728   57289.057    51.40
timer:  cdiag4        15367       0.150    2308.048     2.07
timer:  c-eigvec       7623       6.379   48625.805    43.63
timer:  c-buildD       7623       1.733   13207.370    11.85
timer:  DHSCF4            1      30.512      30.512     0.03
timer:  dfscf             1      28.592      28.592     0.03
timer:  overfsm           1       0.386       0.386     0.00
timer:  optical           1       4.660       4.660     0.00
  

elaps: ELAPSED times:
elaps:  Routine       Calls   Time/call    Tot.time        %
elaps:  siesta            1   13957.994   13957.994   100.00
elaps:  Setup             1       0.507       0.507     0.00
elaps:  bands             3      30.503      91.509     0.66
elaps:  writewave         1       0.006       0.006     0.00
elaps:  KSV_init          1       0.001       0.001     0.00
elaps:  IterMD            1   13865.366   13865.366    99.34
elaps:  hsparse           1       0.035       0.035     0.00
elaps:  overlap           1       0.896       0.896     0.01
elaps:  IterSCF          33     419.533   13844.597    99.19
elaps:  kinefsm           2       0.463       0.925     0.01
elaps:  nlefsm            2       2.238       4.477     0.03
elaps:  DHSCF            34      10.507     357.246     2.56
elaps:  DHSCF1            1       0.095       0.095     0.00
elaps:  DHSCF2            1       4.009       4.009     0.03
elaps:  REORD           274       0.001       0.181     0.00
elaps:  POISON           35       0.110       3.859     0.03
elaps:  DHSCF3           34      10.149     345.072     2.47
elaps:  rhoofd           34       4.844     164.711     1.18
elaps:  cellXC           34       0.406      13.820     0.10
elaps:  vmat             34       4.732     160.890     1.15
elaps:  MolMec            2       0.000       0.000     0.00
elaps:  diagon           33     408.992   13496.722    96.70
elaps:  c-eigval       7744       0.754    5839.858    41.84
elaps:  c-buildHS      7744       0.007      51.042     0.37
elaps:  cdiag         15367       0.770   11826.622    84.73
elaps:  cdiag1        15367       0.048     739.119     5.30
elaps:  cdiag2        15367       0.222    3405.131    24.40
elaps:  cdiag3        15367       0.467    7183.612    51.47
elaps:  cdiag4        15367       0.018     283.666     2.03
elaps:  c-eigvec       7623       0.798    6080.165    43.56
elaps:  c-buildD       7623       0.218    1662.986    11.91
elaps:  DHSCF4            1       7.986       7.986     0.06
elaps:  dfscf             1       7.569       7.569     0.05
elaps:  overfsm           1       0.049       0.049     0.00
elaps:  optical           1       0.001       0.001     0.00
  
>> End of run:  15-APR-2016  13:28:40
