Siesta Version:                                        siesta-3.2-pl-3
Architecture  : x86_64-unknown-linux-gnu--unknown
Compiler flags: mpiifort -g -O2 -fPIC -xSSE4.1 -fp-model source -shared-intel 
PARALLEL version

* Running on    8 nodes in parallel
>> Start of run:  14-APR-2016  21:52:42

                           ***********************       
                           *  WELCOME TO SIESTA  *       
                           ***********************       

reinit: Reading from standard input
************************** Dump of input data file ****************************
#(1) General system descriptors
SystemName            GRP_doping    # Descriptive name of the system
SystemLabel           GRP_doping    # Short name for naming files
%include STRUCT.fdf
%include KPT.fdf
%include BASIS.fdf
#%include TS.fdf # for transiesta calculation
#(4) DFT, Grid, SCF
XC.functional         GGA           # LDA or GGA (default = LDA)
XC.authors            PBE           # CA (Ceperley-Aldr) = PZ
                                    #    (Perdew-Zunger) - LDA - Default
                                    # PW92 (Perdew-Wang-92) - LDA
                                    # PBE (Perdew-Burke-Ernzerhof) - GGA
MeshCutoff            200.000000    Ry      # Default: 50.0 Ry ~ 0.444 Bohr
                                    #         100.0 Ry ~ 0.314 Bohr
MaxSCFIterations      500           # Default: 50
DM.MixingWeight       0.05          # Default: 0.25
DM.NumberPulay        10            # Default: 0
DM.PulayOnFile        F             # SystemLabel.P1, SystemLabel.P2
DM.Tolerance          1.d-4         # Default: 1.d-4
DM.UseSaveDM          .true.        # because of the bug
SCFMustConverge       .true.
NeglNonOverlapInt     F             # Default: F
#(5) Eigenvalue problem: order-N or diagonalization
SolutionMethod        Diagon        # or Transiesta
ElectronicTemperature 300.0 K       # Default: 300.0 K
#(6) Molecular dynamics and relaxations
#MD.TypeOfRun          CG            # Type of dynamics:
#MD.VariableCell       F
#MD.NumCGsteps         0           # 0 for single-point / 100 for gopt
#MD.MaxCGDispl         0.2 Bohr      # Default: 0.2 Bohr
#MD.MaxForceTol        0.02 eV/Ang   # Default: 0.04 eV/Ang
#MD.MaxStressTol       1.0 GPa       # Default: 1.0 GPa
# Geometry Constraints
#%block GeometryConstraints
#	position from 1 to 44
#%endblock GeometryConstraints
BandLinesScale   pi/a
%block BandLines
 1   0.00000000  0.00000000  0.00000000
50   0.00000000  0.07809418  0.00000000
50   0.04509075  0.07809242  0.00000000
20   0.00000000  0.00000000  0.00000000
%endblock BandLines
************************** End of input data file *****************************

reinit: -----------------------------------------------------------------------
reinit: System Name: GRP_doping
reinit: -----------------------------------------------------------------------
reinit: System Label: GRP_doping                                                  
reinit: -----------------------------------------------------------------------

initatom: Reading input for the pseudopotentials and atomic orbitals ----------
 Species number:            1  Label: B Atomic number:           5
 Species number:            2  Label: C Atomic number:           6
Ground state valence configuration:   2s02  2p01
Reading pseudopotential information in formatted form from B.psf

Valence configuration for pseudopotential generation:
2s( 2.00) rc: 1.74
2p( 1.00) rc: 1.74
3d( 0.00) rc: 1.74
4f( 0.00) rc: 1.74
Ground state valence configuration:   2s02  2p02
Reading pseudopotential information in formatted form from C.psf

Valence configuration for pseudopotential generation:
2s( 2.00) rc: 1.54
2p( 2.00) rc: 1.54
3d( 0.00) rc: 1.54
4f( 0.00) rc: 1.54
For B, standard SIESTA heuristics set lmxkb to 3
 (one more than the basis l, including polarization orbitals).
Use PS.lmax or PS.KBprojectors blocks to override.
For C, standard SIESTA heuristics set lmxkb to 3
 (one more than the basis l, including polarization orbitals).
Use PS.lmax or PS.KBprojectors blocks to override.

<basis_specs>
===============================================================================
B                    Z=   5    Mass=  10.810        Charge= 0.17977+309
Lmxo=1 Lmxkb= 3    BasisType=split      Semic=F
L=0  Nsemic=0  Cnfigmx=2
          n=1  nzeta=2  polorb=0
            splnorm:   0.15000    
               vcte:    0.0000    
               rinn:    0.0000    
                rcs:    0.0000      0.0000    
            lambdas:    1.0000      1.0000    
L=1  Nsemic=0  Cnfigmx=2
          n=1  nzeta=2  polorb=1
            splnorm:   0.15000    
               vcte:    0.0000    
               rinn:    0.0000    
                rcs:    0.0000      0.0000    
            lambdas:    1.0000      1.0000    
-------------------------------------------------------------------------------
L=0  Nkbl=1  erefs: 0.17977+309
L=1  Nkbl=1  erefs: 0.17977+309
L=2  Nkbl=1  erefs: 0.17977+309
L=3  Nkbl=1  erefs: 0.17977+309
===============================================================================
</basis_specs>

atom: Called for B                     (Z =   5)

read_vps: Pseudopotential generation method:
read_vps: ATM3      Troullier-Martins                       
Total valence charge:    3.00000

read_vps: Pseudopotential includes a core correction:
read_vps: Pseudo-core for xc-correction

xc_check: Exchange-correlation functional:
xc_check: GGA Perdew, Burke & Ernzerhof 1996
V l=0 = -2*Zval/r beyond r=  1.7165
V l=1 = -2*Zval/r beyond r=  1.7165
V l=2 = -2*Zval/r beyond r=  1.7165
V l=3 = -2*Zval/r beyond r=  1.6951
All V_l potentials equal beyond r=  1.7165
This should be close to max(r_c) in ps generation
All pots = -2*Zval/r beyond r=  1.7165

VLOCAL1: 99.0% of the norm of Vloc inside     14.733 Ry
VLOCAL1: 99.9% of the norm of Vloc inside     33.577 Ry
atom: Maximum radius for 4*pi*r*r*local-pseudopot. charge    2.04484
atom: Maximum radius for r*vlocal+2*Zval:    1.75994
GHOST: No ghost state for L =  0
GHOST: No ghost state for L =  1
GHOST: No ghost state for L =  2
GHOST: No ghost state for L =  3

KBgen: Kleinman-Bylander projectors: 
   l= 0   rc=  1.897051   el= -0.693730   Ekb=  4.595746   kbcos=  0.286105
   l= 1   rc=  1.920920   el= -0.265236   Ekb= -2.350715   kbcos= -0.315747
   l= 2   rc=  2.044840   el=  0.002055   Ekb= -0.690767   kbcos= -0.013822
   l= 3   rc=  2.149707   el=  0.003188   Ekb= -0.315358   kbcos= -0.002055

KBgen: Total number of  Kleinman-Bylander projectors:   16
atom: -------------------------------------------------------------------------

atom: SANKEY-TYPE ORBITALS:
atom: Selected multiple-zeta basis: split     

SPLIT: Orbitals with angular momentum L= 0

SPLIT: Basis orbitals for state 2s

SPLIT: PAO cut-off radius determined from an
SPLIT: energy shift=  0.007350 Ry

   izeta = 1
                 lambda =    1.000000
                     rc =    5.422032
                 energy =   -0.686029
                kinetic =    0.576707
    potential(screened) =   -1.262736
       potential(ionic) =   -3.271094

   izeta = 2
                 rmatch =    4.222573
              splitnorm =    0.150000
                 energy =   -0.602132
                kinetic =    0.858975
    potential(screened) =   -1.461107
       potential(ionic) =   -3.582536

SPLIT: Orbitals with angular momentum L= 1

SPLIT: Basis orbitals for state 2p

SPLIT: PAO cut-off radius determined from an
SPLIT: energy shift=  0.007350 Ry

   izeta = 1
                 lambda =    1.000000
                     rc =    6.790259
                 energy =   -0.258578
                kinetic =    1.481412
    potential(screened) =   -1.739989
       potential(ionic) =   -3.657461

   izeta = 2
                 rmatch =    4.608740
              splitnorm =    0.150000
                 energy =   -0.173757
                kinetic =    2.186690
    potential(screened) =   -2.360447
       potential(ionic) =   -4.464260

POLgen: Perturbative polarization orbital with L=  2

POLgen: Polarization orbital for state 2p

   izeta = 1
                     rc =    6.790259
                 energy =    0.684082
                kinetic =    1.471481
    potential(screened) =   -0.787399
       potential(ionic) =   -2.406985
atom: Total number of Sankey-type orbitals: 13

atm_pop: Valence configuration (for local Pseudopot. screening):
 2s( 2.00)                                                            
 2p( 1.00)                                                            
Vna: chval, zval:    3.00000   3.00000

Vna:  Cut-off radius for the neutral-atom potential:   6.790259
comcore: Pseudo-core radius Rcore=  2.122997

atom: _________________________________________________________________________

<basis_specs>
===============================================================================
C                    Z=   6    Mass=  12.010        Charge= 0.17977+309
Lmxo=1 Lmxkb= 3    BasisType=split      Semic=F
L=0  Nsemic=0  Cnfigmx=2
          n=1  nzeta=2  polorb=0
            splnorm:   0.15000    
               vcte:    0.0000    
               rinn:    0.0000    
                rcs:    0.0000      0.0000    
            lambdas:    1.0000      1.0000    
L=1  Nsemic=0  Cnfigmx=2
          n=1  nzeta=2  polorb=1
            splnorm:   0.15000    
               vcte:    0.0000    
               rinn:    0.0000    
                rcs:    0.0000      0.0000    
            lambdas:    1.0000      1.0000    
-------------------------------------------------------------------------------
L=0  Nkbl=1  erefs: 0.17977+309
L=1  Nkbl=1  erefs: 0.17977+309
L=2  Nkbl=1  erefs: 0.17977+309
L=3  Nkbl=1  erefs: 0.17977+309
===============================================================================
</basis_specs>

atom: Called for C                     (Z =   6)

read_vps: Pseudopotential generation method:
read_vps: ATM3      Troullier-Martins                       
Total valence charge:    4.00000

read_vps: Pseudopotential includes a core correction:
read_vps: Pseudo-core for xc-correction

xc_check: Exchange-correlation functional:
xc_check: GGA Perdew, Burke & Ernzerhof 1996
V l=0 = -2*Zval/r beyond r=  1.5227
V l=1 = -2*Zval/r beyond r=  1.5227
V l=2 = -2*Zval/r beyond r=  1.5227
V l=3 = -2*Zval/r beyond r=  1.5038
All V_l potentials equal beyond r=  1.5227
This should be close to max(r_c) in ps generation
All pots = -2*Zval/r beyond r=  1.5227

VLOCAL1: 99.0% of the norm of Vloc inside     18.722 Ry
VLOCAL1: 99.9% of the norm of Vloc inside     42.668 Ry
atom: Maximum radius for 4*pi*r*r*local-pseudopot. charge    1.83678
atom: Maximum radius for r*vlocal+2*Zval:    1.58088
GHOST: No ghost state for L =  0
GHOST: No ghost state for L =  1
GHOST: No ghost state for L =  2
GHOST: No ghost state for L =  3

KBgen: Kleinman-Bylander projectors: 
   l= 0   rc=  1.704034   el= -1.009801   Ekb=  5.335044   kbcos=  0.316824
   l= 1   rc=  1.704034   el= -0.388707   Ekb= -3.785862   kbcos= -0.366464
   l= 2   rc=  1.791422   el=  0.001971   Ekb= -0.970471   kbcos= -0.009212
   l= 3   rc=  1.859892   el=  0.003065   Ekb= -0.399525   kbcos= -0.001223

KBgen: Total number of  Kleinman-Bylander projectors:   16
atom: -------------------------------------------------------------------------

atom: SANKEY-TYPE ORBITALS:
atom: Selected multiple-zeta basis: split     

SPLIT: Orbitals with angular momentum L= 0

SPLIT: Basis orbitals for state 2s

SPLIT: PAO cut-off radius determined from an
SPLIT: energy shift=  0.007350 Ry

   izeta = 1
                 lambda =    1.000000
                     rc =    4.632753
                 energy =   -1.002270
                kinetic =    0.855760
    potential(screened) =   -1.858031
       potential(ionic) =   -5.417575

   izeta = 2
                 rmatch =    3.431921
              splitnorm =    0.150000
                 energy =   -0.867111
                kinetic =    1.300804
    potential(screened) =   -2.167915
       potential(ionic) =   -5.962684

SPLIT: Orbitals with angular momentum L= 1

SPLIT: Basis orbitals for state 2p

SPLIT: PAO cut-off radius determined from an
SPLIT: energy shift=  0.007350 Ry

   izeta = 1
                 lambda =    1.000000
                     rc =    5.658549
                 energy =   -0.381140
                kinetic =    2.399701
    potential(screened) =   -2.780841
       potential(ionic) =   -6.206085

   izeta = 2
                 rmatch =    3.653288
              splitnorm =    0.150000
                 energy =   -0.249149
                kinetic =    3.542762
    potential(screened) =   -3.791911
       potential(ionic) =   -7.581078

POLgen: Perturbative polarization orbital with L=  2

POLgen: Polarization orbital for state 2p

   izeta = 1
                     rc =    5.658549
                 energy =    1.109913
                kinetic =    2.304789
    potential(screened) =   -1.194876
       potential(ionic) =   -4.013592
atom: Total number of Sankey-type orbitals: 13

atm_pop: Valence configuration (for local Pseudopot. screening):
 2s( 2.00)                                                            
 2p( 2.00)                                                            
Vna: chval, zval:    4.00000   4.00000

Vna:  Cut-off radius for the neutral-atom potential:   5.658549
comcore: Pseudo-core radius Rcore=  1.791422

atom: _________________________________________________________________________

prinput: Basis input ----------------------------------------------------------

PAO.BasisType split     

%block ChemicalSpeciesLabel
    1    5 B                       # Species index, atomic number, species label
    2    6 C                       # Species index, atomic number, species label
%endblock ChemicalSpeciesLabel

%block PAO.Basis                 # Define Basis set
B                     2                    # Species label, number of l-shells
 n=2   0   2                         # n, l, Nzeta 
   5.422      4.223   
   1.000      1.000   
 n=2   1   2 P   1                   # n, l, Nzeta, Polarization, NzetaPol
   6.790      4.609   
   1.000      1.000   
C                     2                    # Species label, number of l-shells
 n=2   0   2                         # n, l, Nzeta 
   4.633      3.432   
   1.000      1.000   
 n=2   1   2 P   1                   # n, l, Nzeta, Polarization, NzetaPol
   5.659      3.653   
   1.000      1.000   
%endblock PAO.Basis

prinput: ----------------------------------------------------------------------

coor:   Atomic-coordinates input format  =     Fractional

siesta: Atomic coordinates (Bohr) and species
siesta:     -0.02582  21.41544   0.00000  1        1
siesta:      2.30256  22.75985   0.00000  1        2
siesta:      2.30256  25.44831   0.00000  1        3
siesta:     -2.35420  22.75985   0.00000  1        4
siesta:     -2.35420  25.44831   0.00000  1        5
siesta:     -9.33934  26.79272   0.00000  1        6
siesta:     -0.02582  26.79272   0.00000  1        7
siesta:     -0.02582   2.59549   0.00000  2        8
siesta:     -0.02582   5.28395   0.00000  2        9
siesta:     -2.35420  38.89134   0.00000  2       10
siesta:     -2.35420  41.57980   0.00000  2       11
siesta:      2.30256  38.89134   0.00000  2       12
siesta:      2.30256  41.57980   0.00000  2       13
siesta:      4.63094  34.85847   0.00000  2       14
siesta:      4.63094  37.54693   0.00000  2       15
siesta:      6.95932  30.82560   0.00000  2       16
siesta:      6.95932  33.51406   0.00000  2       17
siesta:      9.28770  26.79272   0.00000  2       18
siesta:      9.28770  29.48119   0.00000  2       19
siesta:     -4.68258  34.85847   0.00000  2       20
siesta:     -4.68258  37.54693   0.00000  2       21
siesta:      2.30256   6.62836   0.00000  2       22
siesta:      2.30256   9.31683   0.00000  2       23
siesta:      4.63094  10.66124   0.00000  2       24
siesta:      4.63094  13.34970   0.00000  2       25
siesta:      6.95932  14.69411   0.00000  2       26
siesta:      6.95932  17.38257   0.00000  2       27
siesta:      9.28770  18.72698   0.00000  2       28
siesta:      9.28770  21.41544   0.00000  2       29
siesta:     11.61608  22.75985   0.00000  2       30
siesta:     11.61608  25.44831   0.00000  2       31
siesta:     -2.35420   6.62836   0.00000  2       32
siesta:     -2.35420   9.31683   0.00000  2       33
siesta:     -0.02582  10.66124   0.00000  2       34
siesta:     -0.02582  13.34970   0.00000  2       35
siesta:      2.30256  14.69411   0.00000  2       36
siesta:      2.30256  17.38257   0.00000  2       37
siesta:      4.63094  18.72698   0.00000  2       38
siesta:      4.63094  21.41544   0.00000  2       39
siesta:      6.95932  22.75985   0.00000  2       40
siesta:      6.95932  25.44831   0.00000  2       41
siesta:     -4.68258  10.66124   0.00000  2       42
siesta:     -4.68258  13.34970   0.00000  2       43
siesta:     -2.35420  14.69411   0.00000  2       44
siesta:     -2.35420  17.38257   0.00000  2       45
siesta:     -0.02582  18.72698   0.00000  2       46
siesta:     -7.01096  14.69411   0.00000  2       47
siesta:     -7.01096  17.38257   0.00000  2       48
siesta:     -4.68258  18.72698   0.00000  2       49
siesta:     -4.68258  21.41544   0.00000  2       50
siesta:     -9.33934  18.72698   0.00000  2       51
siesta:     -9.33934  21.41544   0.00000  2       52
siesta:     -7.01096  22.75985   0.00000  2       53
siesta:     -7.01096  25.44831   0.00000  2       54
siesta:    -11.66772  22.75985   0.00000  2       55
siesta:    -11.66772  25.44831   0.00000  2       56
siesta:     -9.33934  29.48119   0.00000  2       57
siesta:      4.63094  26.79272   0.00000  2       58
siesta:      4.63094  29.48119   0.00000  2       59
siesta:     -0.02582  29.48119   0.00000  2       60
siesta:     -4.68258  26.79272   0.00000  2       61
siesta:     -4.68258  29.48119   0.00000  2       62
siesta:      2.30256  30.82560   0.00000  2       63
siesta:      2.30256  33.51406   0.00000  2       64
siesta:     -2.35420  30.82560   0.00000  2       65
siesta:     -2.35420  33.51406   0.00000  2       66
siesta:     -7.01096  30.82560   0.00000  2       67
siesta:     -7.01096  33.51406   0.00000  2       68
siesta:     -0.02582  34.85847   0.00000  2       69
siesta:     -0.02582  37.54693   0.00000  2       70
siesta:     -0.02582  42.92421   0.00000  2       71
siesta:     -0.02582  45.61267   0.00000  2       72

siesta: System type = slab      

initatomlists: Number of atoms, orbitals, and projectors:     72   936  1152

siesta: ******************** Simulation parameters ****************************
siesta:
siesta: The following are some of the parameters of the simulation.
siesta: A complete list of the parameters used, including default values,
siesta: can be found in file out.fdf
siesta:
redata: Non-Collinear-spin run           =     F
redata: SpinPolarized (Up/Down) run      =     F
redata: Number of spin components        =     1
redata: Long output                      =     F
redata: Number of Atomic Species         =        2
redata: Charge density info will appear in .RHO file
redata: Write Mulliken Pop.              =     NO
redata: Mesh Cutoff                      =   200.0000  Ry
redata: Net charge of the system         =     0.0000 |e|
redata: Max. number of SCF Iter          =      500
redata: SCF convergence failure will abort job
redata: Performing Pulay mixing using    =    10 iterations
redata: Mix DM in first SCF step ?       =     F
redata: Write Pulay info on disk?        =     F
redata: Discard 1st Pulay DM after  kick =     F
redata: New DM Mixing Weight             =     0.0500
redata: New DM Occupancy tolerance       = 0.000000000001
redata: No kicks to SCF
redata: DM Mixing Weight for Kicks       =     0.5000
redata: DM Tolerance for SCF             =     0.000100
redata: Require Energy convergence for SCF =     F
redata: DM Energy tolerance for SCF      =     0.000100 eV
redata: Require Harris convergence for SCF =     F
redata: DM Harris energy tolerance for SCF =     0.000100 eV
redata: Using Saved Data (generic)   =     F
redata: Use continuation files for DM    =     T
redata: Neglect nonoverlap interactions  =     F
redata: Method of Calculation            =     Diagonalization
redata: Divide and Conquer               =     T
redata: Electronic Temperature           =     0.0019  Ry
redata: Fix the spin of the system       =     F
redata: Dynamics option                  =     Verlet MD run
redata: Initial MD time step             =        1
redata:   Final MD time step             =        1
redata: Length of MD time step           =     1.0000  fs
redata: Initial Temperature of MD run    =     0.0000  K
redata: Perform a MD quench              =     F
redata: ***********************************************************************
Total number of electrons:   281.000000
Total ionic charge:   281.000000

* ProcessorY, Blocksize:    2  24

k-point displ. along   1 input, could be:     0.50    0.00
k-point displ. along   2 input, could be:     0.50    0.00
 Kpoints in:          231 . Kpoints trimmed:          231

siesta: k-grid: Number of k-points =   231
siesta: k-grid: Cutoff (effective) =     5.000 Ang
siesta: k-grid: Supercell and displacements
siesta: k-grid:   21   0   0      0.500
siesta: k-grid:    0  21   0      0.500
siesta: k-grid:    0   0   1      0.000
Naive supercell factors:     2    2    2

superc: Internal auxiliary supercell:     2 x     2 x     2  =       8
superc: Number of atoms, orbitals, and projectors:    576   7488   9216

* Maximum dynamic memory allocated =     4 MB

siesta:                 ==============================
                            Begin MD step =      1
                        ==============================

superc: Internal auxiliary supercell:     2 x     2 x     2  =       8
superc: Number of atoms, orbitals, and projectors:    576   7488   9216

outcell: Unit cell vectors (Ang):
       12.804619    7.392750    0.000000
        0.000000   14.785500    0.000000
        0.000000    0.000000   10.000000

outcell: Cell vector modules (Ang)   :   14.785500   14.785500   10.000000
outcell: Cell angles (23,13,12) (deg):     90.0000     90.0000     60.0000
outcell: Cell volume (Ang**3)        :   1893.2269
New_DM. Step:     1
Initializing Density Matrix...

InitMesh: MESH =   120 x   120 x    90 =     1296000
InitMesh: Mesh cutoff (required, used) =   200.000   223.865 Ry

* Maximum dynamic memory allocated =   206 MB

stepf: Fermi-Dirac step function

siesta: Program's energy decomposition (eV):
siesta: Ebs     =     -5771.938958
siesta: Eions   =     17506.614093
siesta: Ena     =      4553.622303
siesta: Ekin    =      6009.009694
siesta: Enl     =       685.863040
siesta: DEna    =        -0.000013
siesta: DUscf   =         0.000000
siesta: DUext   =         0.000000
siesta: Exc     =     -4182.595297
siesta: eta*DQ  =         0.000000
siesta: Emadel  =         0.000000
siesta: Emeta   =         0.000000
siesta: Emolmec =         0.000000
siesta: Ekinion =         0.000000
siesta: Eharris =    -10116.765966
siesta: Etot    =    -10440.714366
siesta: FreeEng =    -10440.714366

siesta: iscf   Eharris(eV)      E_KS(eV)   FreeEng(eV)   dDmax  Ef(eV)
siesta:    1   -10116.7660   -10440.7144   -10440.7144  6.3667 -8.0768
timer: Routine,Calls,Time,% = IterSCF        1    4363.147  99.72
elaps: Routine,Calls,Wall,% = IterSCF        1     546.112  99.71
siesta:    2   -13927.6768    -9483.4762    -9483.5990 17.9573 -2.2474
siesta:    3   -10062.3818   -10269.8895   -10269.9369  3.1308 -6.5811
siesta:    4   -10043.7426   -10110.3756   -10110.4114  1.0596 -4.9451
siesta:    5   -10003.7911   -10085.4162   -10085.4557  0.8629 -5.2137
siesta:    6    -9980.2876   -10036.7804   -10036.7964  0.7338 -4.9612
siesta:    7    -9977.1149   -10011.6682   -10011.7026  0.6645 -4.9897
siesta:    8    -9972.9447   -10005.0720   -10005.0906  0.6235 -5.0716
siesta:    9    -9971.6206    -9997.0989    -9997.1399  0.5681 -5.0936
siesta:   10    -9970.4197    -9976.3081    -9976.3714  0.3932 -4.9382
siesta:   11    -9969.6006    -9965.0296    -9965.0880  0.2815 -4.8804
siesta:   12    -9969.5753    -9953.0618    -9953.1279  0.2266 -4.8082
siesta:   13    -9969.9887    -9943.9125    -9943.9890  0.1436 -4.7750
siesta:   14    -9968.8635    -9946.5268    -9946.6054  0.1463 -4.7768
siesta:   15    -9968.5791    -9944.0593    -9944.1155  0.1246 -4.7849
siesta:   16    -9967.9097    -9948.8267    -9948.8820  0.0905 -4.7886
siesta:   17    -9967.7430    -9950.7189    -9950.7953  0.0849 -4.7986
siesta:   18    -9967.6141    -9956.8234    -9956.8837  0.0634 -4.8286
siesta:   19    -9967.5977    -9960.2935    -9960.3566  0.0560 -4.8393
siesta:   20    -9967.5678    -9963.9338    -9963.9955  0.0414 -4.8591
siesta:   21    -9967.5465    -9966.0233    -9966.0860  0.0361 -4.8706
siesta:   22    -9967.5363    -9966.5816    -9966.6430  0.0274 -4.8716
siesta:   23    -9967.5268    -9967.2168    -9967.2793  0.0182 -4.8683
siesta:   24    -9967.5266    -9967.5752    -9967.6375  0.0138 -4.8603
siesta:   25    -9967.5250    -9968.1883    -9968.2502  0.0092 -4.8617
siesta:   26    -9967.5238    -9967.8394    -9967.9011  0.0060 -4.8570
siesta:   27    -9967.5232    -9967.8221    -9967.8844  0.0049 -4.8563
siesta:   28    -9967.5227    -9967.8551    -9967.9175  0.0036 -4.8561
siesta:   29    -9967.5226    -9967.8149    -9967.8772  0.0028 -4.8562
siesta:   30    -9967.5227    -9967.8075    -9967.8699  0.0014 -4.8570
siesta:   31    -9967.5226    -9967.6579    -9967.7201  0.0011 -4.8570
siesta:   32    -9967.5226    -9967.6502    -9967.7124  0.0005 -4.8575
siesta:   33    -9967.5226    -9967.6449    -9967.7071  0.0007 -4.8577
siesta:   34    -9967.5226    -9967.5987    -9967.6609  0.0003 -4.8576
siesta:   35    -9967.5226    -9967.5591    -9967.6213  0.0001 -4.8576
siesta:   36    -9967.5226    -9967.5337    -9967.5959  0.0001 -4.8576
siesta:   37    -9967.5226    -9967.5303    -9967.5925  0.0001 -4.8576

siesta: E_KS(eV) =            -9967.5240

siesta: E_KS - E_eggbox =     -9967.5240

siesta: Atomic forces (eV/Ang):
----------------------------------------
   Tot   -0.196530   -0.057999    0.000000
----------------------------------------
   Max  562.474773
   Res  161.292803    sqrt( Sum f_i^2 / 3N )
----------------------------------------
   Max  562.474773    constrained

Stress-tensor-Voigt (kbar):     -768.56    -2881.76       -0.39       -0.71        0.00        0.00
(Free)E + p*V (eV/cell)    -8529.6347
Target enthalpy (eV/cell)    -9967.5862

siesta: Stress tensor (static) (eV/Ang**3):
        -0.479690   -0.000440    0.000000
        -0.000440   -1.798637    0.000000
         0.000000    0.000000   -0.000246

siesta: Pressure (static):       1216.90497674  kBar

siesta: Stress tensor (total) (eV/Ang**3):
        -0.479690   -0.000440    0.000000
        -0.000440   -1.798637    0.000000
         0.000000    0.000000   -0.000246

siesta: Pressure (total):       1216.90497674  kBar

siesta: Temp_ion =       0.000 K

* Maximum dynamic memory allocated =   222 MB
Computing bands...

siesta: Program's energy decomposition (eV):
siesta: Ebs     =     -4437.407380
siesta: Eions   =     17506.614093
siesta: Ena     =      4553.622303
siesta: Ekin    =      8981.969553
siesta: Enl     =      -945.961112
siesta: DEna    =      -799.507119
siesta: DUscf   =       105.950412
siesta: DUext   =         0.000000
siesta: Exc     =     -4356.983950
siesta: eta*DQ  =         0.000000
siesta: Emadel  =         0.000000
siesta: Emeta   =         0.000000
siesta: Emolmec =         0.000000
siesta: Ekinion =         0.000000
siesta: Eharris =     -9967.522586
siesta: Etot    =     -9967.524007
siesta: FreeEng =     -9967.586236

siesta: Final energy (eV):
siesta:  Band Struct. =   -4437.407380
siesta:       Kinetic =    8981.969553
siesta:       Hartree =   29571.312984
siesta:    Ext. field =       0.000000
siesta:   Exch.-corr. =   -4356.983950
siesta:  Ion-electron =  -67798.081571
siesta:       Ion-ion =   23634.258977
siesta:       Ekinion =       0.000000
siesta:         Total =   -9967.524007

siesta: Atomic forces (eV/Ang):
siesta:      1    0.030343   -4.215292    0.000000
siesta:      2    3.561071   -3.044102    0.000000
siesta:      3    3.665412    3.024070    0.000000
siesta:      4   -3.597498   -3.125878    0.000000
siesta:      5   -3.476684    3.203897    0.000000
siesta:      6   -3.705746    1.481181    0.000000
siesta:      7   -0.014076    4.232837    0.000000
siesta:      8   -0.143712  550.870086    0.000000
siesta:      9    0.018670 -128.422032    0.000000
siesta:     10    1.477969  126.460839    0.000000
siesta:     11  -15.306826 -548.062009    0.000000
siesta:     12   -1.593891  126.433697    0.000000
siesta:     13   15.302478 -548.094931    0.000000
siesta:     14   26.802368    5.567607    0.000000
siesta:     15   33.527388 -548.857609    0.000000
siesta:     16    2.417427    0.322454    0.000000
siesta:     17   -2.670130    2.035103    0.000000
siesta:     18    2.542190    1.387523    0.000000
siesta:     19   -1.278012    0.598105    0.000000
siesta:     20  -26.798168    5.688834    0.000000
siesta:     21  -33.459400 -548.883490    0.000000
siesta:     22   15.329649  548.161208    0.000000
siesta:     23   -1.573092 -126.400037    0.000000
siesta:     24   33.399275  548.800145    0.000000
siesta:     25   26.841259   -5.519904    0.000000
siesta:     26   -2.584942   -2.040425    0.000000
siesta:     27    2.153151   -0.311755    0.000000
siesta:     28   -0.999581   -0.663722    0.000000
siesta:     29    2.420989   -1.436911    0.000000
siesta:     30   -0.276652    7.198414    0.000000
siesta:     31   -0.260132   -7.200974    0.000000
siesta:     32  -15.340797  548.251251    0.000000
siesta:     33    1.504900 -126.421660    0.000000
siesta:     34    0.120331  542.596207    0.000000
siesta:     35   -0.046303 -125.650296    0.000000
siesta:     36   22.880692  557.365485    0.000000
siesta:     37   21.184457   -5.423334    0.000000
siesta:     38   -0.590184    2.198265    0.000000
siesta:     39    2.626244   -1.722696    0.000000
siesta:     40    0.139905    0.103880    0.000000
siesta:     41    0.106986   -0.057249    0.000000
siesta:     42  -33.480961  548.905085    0.000000
siesta:     43  -26.794540   -5.769758    0.000000
siesta:     44  -22.720142  557.240976    0.000000
siesta:     45  -21.276351   -5.367752    0.000000
siesta:     46    0.006393  562.385236    0.000000
siesta:     47    2.512191   -1.774643    0.000000
siesta:     48   -2.187153   -0.699947    0.000000
siesta:     49    0.694193    2.092788    0.000000
siesta:     50   -2.735249   -1.655318    0.000000
siesta:     51    1.262301   -0.160239    0.000000
siesta:     52   -2.718238   -1.655286    0.000000
siesta:     53    0.355421    0.055738    0.000000
siesta:     54    2.736410   -1.409462    0.000000
siesta:     55    0.095721    7.351861    0.000000
siesta:     56   -2.740185   -9.745163    0.000000
siesta:     57    2.693082    4.210565    0.000000
siesta:     58    2.617077    1.764732    0.000000
siesta:     59   -0.734823   -2.231381    0.000000
siesta:     60   -0.011091 -562.474773    0.000000
siesta:     61   -2.617962    1.170250    0.000000
siesta:     62    0.822748   -2.206956    0.000000
siesta:     63   21.292351    5.379385    0.000000
siesta:     64   22.747608 -557.468167    0.000000
siesta:     65  -21.292727    5.381192    0.000000
siesta:     66  -22.772753 -557.453620    0.000000
siesta:     67   -2.788909    0.839697    0.000000
siesta:     68    2.510146    2.129701    0.000000
siesta:     69    0.016063  125.688608    0.000000
siesta:     70    0.037775 -542.605137    0.000000
siesta:     71   -0.055810  128.348682    0.000000
siesta:     72   -0.006442 -550.751676    0.000000
siesta: ----------------------------------------
siesta:    Tot   -0.196530   -0.057999    0.000000

siesta: Stress tensor (static) (eV/Ang**3):
siesta:    -0.479690   -0.000440    0.000000
siesta:    -0.000440   -1.798637    0.000000
siesta:     0.000000    0.000000   -0.000246

siesta: Cell volume =       1893.226884 Ang**3

siesta: Pressure (static):
siesta:                Solid            Molecule  Units
siesta:           0.00827219          0.12584074  Ry/Bohr**3
siesta:           0.75952414         11.55426856  eV/Ang**3
siesta:        1216.90497674      18512.17921274  kBar
(Free)E+ p_basis*V_orbitals  =       -9934.636944
(Free)Eharris+ p_basis*V_orbitals  =       -9934.629252

siesta: Electric dipole (a.u.)  =    0.000000    0.000000    0.000000
siesta: Electric dipole (Debye) =    0.000000    0.000000    0.000000

* Maximum dynamic memory allocated : Node    0 =   222 MB
* Maximum dynamic memory allocated : Node    1 =    78 MB
* Maximum dynamic memory allocated : Node    2 =    80 MB
* Maximum dynamic memory allocated : Node    3 =   211 MB
* Maximum dynamic memory allocated : Node    4 =   212 MB
* Maximum dynamic memory allocated : Node    5 =    77 MB
* Maximum dynamic memory allocated : Node    6 =    79 MB
* Maximum dynamic memory allocated : Node    7 =   195 MB

* Maximum memory occured during matrixMtoO                    

timer: CPU execution times:
timer:  Routine       Calls   Time/call    Tot.time        %
timer:  siesta            1  158993.115  158993.115   100.00
timer:  Setup             1       3.813       3.813     0.00
timer:  bands             3     269.089     807.268     0.51
timer:  writewave         1       0.043       0.043     0.00
timer:  KSV_init          1       0.003       0.003     0.00
timer:  IterMD            1  158176.350  158176.350    99.49
timer:  hsparse           1       0.394       0.394     0.00
timer:  overlap           1       5.963       5.963     0.00
timer:  IterSCF          37    4269.615  157975.764    99.36
timer:  kinefsm           2       3.110       6.220     0.00
timer:  nlefsm            2      20.178      40.355     0.03
timer:  DHSCF            38     107.786    4095.875     2.58
timer:  DHSCF1            1       0.995       0.995     0.00
timer:  DHSCF2            1      42.272      42.272     0.03
timer:  REORD           306       0.010       3.060     0.00
timer:  POISON           39       2.244      87.535     0.06
timer:  DHSCF3           38     105.602    4012.888     2.52
timer:  rhoofd           38      22.231     844.787     0.53
timer:  cellXC           38       3.486     132.479     0.08
timer:  vmat             38      49.641    1886.360     1.19
timer:  MolMec            2       0.000       0.000     0.00
timer:  diagon           37    4155.174  153741.425    96.70
timer:  c-eigval       8668       6.668   57794.005    36.35
timer:  c-buildHS      8668       0.118    1025.085     0.64
timer:  cdiag         17215       6.849  117909.353    74.16
timer:  cdiag1        17215       0.426    7332.448     4.61
timer:  cdiag2        17215       1.904   32785.610    20.62
timer:  cdiag3        17215       3.941   67841.481    42.67
timer:  cdiag4        17215       0.203    3492.955     2.20
timer:  c-eigvec       8547       7.225   61749.824    38.84
timer:  c-buildD       8547       4.090   34957.683    21.99
timer:  DHSCF4            1      37.691      37.691     0.02
timer:  dfscf             1      35.152      35.152     0.02
timer:  overfsm           1       0.449       0.449     0.00
timer:  optical           1       4.988       4.988     0.00
  

elaps: ELAPSED times:
elaps:  Routine       Calls   Time/call    Tot.time        %
elaps:  siesta            1   19899.562   19899.562   100.00
elaps:  Setup             1       0.492       0.492     0.00
elaps:  bands             3      33.689     101.066     0.51
elaps:  writewave         1       0.006       0.006     0.00
elaps:  KSV_init          1       0.001       0.001     0.00
elaps:  IterMD            1   19797.345   19797.345    99.49
elaps:  hsparse           1       0.047       0.047     0.00
elaps:  overlap           1       0.978       0.978     0.00
elaps:  IterSCF          37     534.389   19772.379    99.36
elaps:  kinefsm           2       0.507       1.013     0.01
elaps:  nlefsm            2       2.532       5.063     0.03
elaps:  DHSCF            38      13.607     517.079     2.60
elaps:  DHSCF1            1       0.128       0.128     0.00
elaps:  DHSCF2            1       5.284       5.284     0.03
elaps:  REORD           306       0.001       0.405     0.00
elaps:  POISON           39       0.280      10.918     0.05
elaps:  DHSCF3           38      13.211     502.022     2.52
elaps:  rhoofd           38       6.229     236.716     1.19
elaps:  cellXC           38       0.435      16.546     0.08
elaps:  vmat             38       6.210     235.985     1.19
elaps:  MolMec            2       0.000       0.000     0.00
elaps:  diagon           37     520.002   19240.070    96.69
elaps:  c-eigval       8668       0.834    7231.110    36.34
elaps:  c-buildHS      8668       0.016     140.515     0.71
elaps:  cdiag         17215       0.844   14533.192    73.03
elaps:  cdiag1        17215       0.053     911.603     4.58
elaps:  cdiag2        17215       0.238    4101.929    20.61
elaps:  cdiag3        17215       0.494    8499.739    42.71
elaps:  cdiag4        17215       0.026     439.940     2.21
elaps:  c-eigvec       8547       0.883    7544.493    37.91
elaps:  c-buildD       8547       0.533    4558.085    22.91
elaps:  DHSCF4            1       9.370       9.370     0.05
elaps:  dfscf             1       8.875       8.875     0.04
elaps:  overfsm           1       0.057       0.057     0.00
elaps:  optical           1       0.001       0.001     0.00
  
>> End of run:  15-APR-2016   3:24:22
