Siesta Version:                                        siesta-3.2-pl-3
Architecture  : x86_64-unknown-linux-gnu--unknown
Compiler flags: mpiifort -g -O2 -fPIC -xSSE4.1 -fp-model source -shared-intel 
PARALLEL version

* Running on   12 nodes in parallel
>> Start of run:   3-MAY-2016  21:40:29

                           ***********************       
                           *  WELCOME TO SIESTA  *       
                           ***********************       

reinit: Reading from standard input
************************** Dump of input data file ****************************
#(1) General system descriptors
SystemName            GRP_doping    # Descriptive name of the system
SystemLabel           GRP_doping    # Short name for naming files
%include STRUCT.fdf
%include KPT.fdf
%include BASIS.fdf
#%include TS.fdf # for transiesta calculation
#(4) DFT, Grid, SCF
XC.functional         GGA           # LDA or GGA (default = LDA)
XC.authors            PBE           # CA (Ceperley-Aldr) = PZ
                                    #    (Perdew-Zunger) - LDA - Default
                                    # PW92 (Perdew-Wang-92) - LDA
                                    # PBE (Perdew-Burke-Ernzerhof) - GGA
MeshCutoff            200.000000    Ry      # Default: 50.0 Ry ~ 0.444 Bohr
                                    #         100.0 Ry ~ 0.314 Bohr
MaxSCFIterations      500           # Default: 50
DM.MixingWeight       0.05          # Default: 0.25
DM.NumberPulay        10            # Default: 0
DM.PulayOnFile        F             # SystemLabel.P1, SystemLabel.P2
DM.Tolerance          1.d-4         # Default: 1.d-4
DM.UseSaveDM          .true.        # because of the bug
SCFMustConverge       .true.
NeglNonOverlapInt     F             # Default: F
#(5) Eigenvalue problem: order-N or diagonalization
SolutionMethod        Diagon        # or Transiesta
ElectronicTemperature 300.0 K       # Default: 300.0 K
#(6) Molecular dynamics and relaxations
#MD.TypeOfRun          CG            # Type of dynamics:
#MD.VariableCell       F
#MD.NumCGsteps         0           # 0 for single-point / 100 for gopt
#MD.MaxCGDispl         0.2 Bohr      # Default: 0.2 Bohr
#MD.MaxForceTol        0.02 eV/Ang   # Default: 0.04 eV/Ang
#MD.MaxStressTol       1.0 GPa       # Default: 1.0 GPa
# Geometry Constraints
#%block GeometryConstraints
#	position from 1 to 44
#%endblock GeometryConstraints
BandLinesScale   pi/a
%block BandLines
 1   0.00000000  0.00000000  0.00000000
50   0.00000000  0.07809418  0.00000000
50   0.04509075  0.07809242  0.00000000
20   0.00000000  0.00000000  0.00000000
%endblock BandLines
************************** End of input data file *****************************

reinit: -----------------------------------------------------------------------
reinit: System Name: GRP_doping
reinit: -----------------------------------------------------------------------
reinit: System Label: GRP_doping                                                  
reinit: -----------------------------------------------------------------------

initatom: Reading input for the pseudopotentials and atomic orbitals ----------
 Species number:            1  Label: B Atomic number:           5
 Species number:            2  Label: C Atomic number:           6
Ground state valence configuration:   2s02  2p01
Reading pseudopotential information in formatted form from B.psf

Valence configuration for pseudopotential generation:
2s( 2.00) rc: 1.74
2p( 1.00) rc: 1.74
3d( 0.00) rc: 1.74
4f( 0.00) rc: 1.74
Ground state valence configuration:   2s02  2p02
Reading pseudopotential information in formatted form from C.psf

Valence configuration for pseudopotential generation:
2s( 2.00) rc: 1.54
2p( 2.00) rc: 1.54
3d( 0.00) rc: 1.54
4f( 0.00) rc: 1.54
For B, standard SIESTA heuristics set lmxkb to 3
 (one more than the basis l, including polarization orbitals).
Use PS.lmax or PS.KBprojectors blocks to override.
For C, standard SIESTA heuristics set lmxkb to 3
 (one more than the basis l, including polarization orbitals).
Use PS.lmax or PS.KBprojectors blocks to override.

<basis_specs>
===============================================================================
B                    Z=   5    Mass=  10.810        Charge= 0.17977+309
Lmxo=1 Lmxkb= 3    BasisType=split      Semic=F
L=0  Nsemic=0  Cnfigmx=2
          n=1  nzeta=2  polorb=0
            splnorm:   0.15000    
               vcte:    0.0000    
               rinn:    0.0000    
                rcs:    0.0000      0.0000    
            lambdas:    1.0000      1.0000    
L=1  Nsemic=0  Cnfigmx=2
          n=1  nzeta=2  polorb=1
            splnorm:   0.15000    
               vcte:    0.0000    
               rinn:    0.0000    
                rcs:    0.0000      0.0000    
            lambdas:    1.0000      1.0000    
-------------------------------------------------------------------------------
L=0  Nkbl=1  erefs: 0.17977+309
L=1  Nkbl=1  erefs: 0.17977+309
L=2  Nkbl=1  erefs: 0.17977+309
L=3  Nkbl=1  erefs: 0.17977+309
===============================================================================
</basis_specs>

atom: Called for B                     (Z =   5)

read_vps: Pseudopotential generation method:
read_vps: ATM3      Troullier-Martins                       
Total valence charge:    3.00000

read_vps: Pseudopotential includes a core correction:
read_vps: Pseudo-core for xc-correction

xc_check: Exchange-correlation functional:
xc_check: GGA Perdew, Burke & Ernzerhof 1996
V l=0 = -2*Zval/r beyond r=  1.7165
V l=1 = -2*Zval/r beyond r=  1.7165
V l=2 = -2*Zval/r beyond r=  1.7165
V l=3 = -2*Zval/r beyond r=  1.6951
All V_l potentials equal beyond r=  1.7165
This should be close to max(r_c) in ps generation
All pots = -2*Zval/r beyond r=  1.7165

VLOCAL1: 99.0% of the norm of Vloc inside     14.733 Ry
VLOCAL1: 99.9% of the norm of Vloc inside     33.577 Ry
atom: Maximum radius for 4*pi*r*r*local-pseudopot. charge    2.04484
atom: Maximum radius for r*vlocal+2*Zval:    1.75994
GHOST: No ghost state for L =  0
GHOST: No ghost state for L =  1
GHOST: No ghost state for L =  2
GHOST: No ghost state for L =  3

KBgen: Kleinman-Bylander projectors: 
   l= 0   rc=  1.897051   el= -0.693730   Ekb=  4.595746   kbcos=  0.286105
   l= 1   rc=  1.920920   el= -0.265236   Ekb= -2.350715   kbcos= -0.315747
   l= 2   rc=  2.044840   el=  0.002055   Ekb= -0.690767   kbcos= -0.013822
   l= 3   rc=  2.149707   el=  0.003188   Ekb= -0.315358   kbcos= -0.002055

KBgen: Total number of  Kleinman-Bylander projectors:   16
atom: -------------------------------------------------------------------------

atom: SANKEY-TYPE ORBITALS:
atom: Selected multiple-zeta basis: split     

SPLIT: Orbitals with angular momentum L= 0

SPLIT: Basis orbitals for state 2s

SPLIT: PAO cut-off radius determined from an
SPLIT: energy shift=  0.007350 Ry

   izeta = 1
                 lambda =    1.000000
                     rc =    5.422032
                 energy =   -0.686029
                kinetic =    0.576707
    potential(screened) =   -1.262736
       potential(ionic) =   -3.271094

   izeta = 2
                 rmatch =    4.222573
              splitnorm =    0.150000
                 energy =   -0.602132
                kinetic =    0.858975
    potential(screened) =   -1.461107
       potential(ionic) =   -3.582536

SPLIT: Orbitals with angular momentum L= 1

SPLIT: Basis orbitals for state 2p

SPLIT: PAO cut-off radius determined from an
SPLIT: energy shift=  0.007350 Ry

   izeta = 1
                 lambda =    1.000000
                     rc =    6.790259
                 energy =   -0.258578
                kinetic =    1.481412
    potential(screened) =   -1.739989
       potential(ionic) =   -3.657461

   izeta = 2
                 rmatch =    4.608740
              splitnorm =    0.150000
                 energy =   -0.173757
                kinetic =    2.186690
    potential(screened) =   -2.360447
       potential(ionic) =   -4.464260

POLgen: Perturbative polarization orbital with L=  2

POLgen: Polarization orbital for state 2p

   izeta = 1
                     rc =    6.790259
                 energy =    0.684082
                kinetic =    1.471481
    potential(screened) =   -0.787399
       potential(ionic) =   -2.406985
atom: Total number of Sankey-type orbitals: 13

atm_pop: Valence configuration (for local Pseudopot. screening):
 2s( 2.00)                                                            
 2p( 1.00)                                                            
Vna: chval, zval:    3.00000   3.00000

Vna:  Cut-off radius for the neutral-atom potential:   6.790259
comcore: Pseudo-core radius Rcore=  2.122997

atom: _________________________________________________________________________

<basis_specs>
===============================================================================
C                    Z=   6    Mass=  12.010        Charge= 0.17977+309
Lmxo=1 Lmxkb= 3    BasisType=split      Semic=F
L=0  Nsemic=0  Cnfigmx=2
          n=1  nzeta=2  polorb=0
            splnorm:   0.15000    
               vcte:    0.0000    
               rinn:    0.0000    
                rcs:    0.0000      0.0000    
            lambdas:    1.0000      1.0000    
L=1  Nsemic=0  Cnfigmx=2
          n=1  nzeta=2  polorb=1
            splnorm:   0.15000    
               vcte:    0.0000    
               rinn:    0.0000    
                rcs:    0.0000      0.0000    
            lambdas:    1.0000      1.0000    
-------------------------------------------------------------------------------
L=0  Nkbl=1  erefs: 0.17977+309
L=1  Nkbl=1  erefs: 0.17977+309
L=2  Nkbl=1  erefs: 0.17977+309
L=3  Nkbl=1  erefs: 0.17977+309
===============================================================================
</basis_specs>

atom: Called for C                     (Z =   6)

read_vps: Pseudopotential generation method:
read_vps: ATM3      Troullier-Martins                       
Total valence charge:    4.00000

read_vps: Pseudopotential includes a core correction:
read_vps: Pseudo-core for xc-correction

xc_check: Exchange-correlation functional:
xc_check: GGA Perdew, Burke & Ernzerhof 1996
V l=0 = -2*Zval/r beyond r=  1.5227
V l=1 = -2*Zval/r beyond r=  1.5227
V l=2 = -2*Zval/r beyond r=  1.5227
V l=3 = -2*Zval/r beyond r=  1.5038
All V_l potentials equal beyond r=  1.5227
This should be close to max(r_c) in ps generation
All pots = -2*Zval/r beyond r=  1.5227

VLOCAL1: 99.0% of the norm of Vloc inside     18.722 Ry
VLOCAL1: 99.9% of the norm of Vloc inside     42.668 Ry
atom: Maximum radius for 4*pi*r*r*local-pseudopot. charge    1.83678
atom: Maximum radius for r*vlocal+2*Zval:    1.58088
GHOST: No ghost state for L =  0
GHOST: No ghost state for L =  1
GHOST: No ghost state for L =  2
GHOST: No ghost state for L =  3

KBgen: Kleinman-Bylander projectors: 
   l= 0   rc=  1.704034   el= -1.009801   Ekb=  5.335044   kbcos=  0.316824
   l= 1   rc=  1.704034   el= -0.388707   Ekb= -3.785862   kbcos= -0.366464
   l= 2   rc=  1.791422   el=  0.001971   Ekb= -0.970471   kbcos= -0.009212
   l= 3   rc=  1.859892   el=  0.003065   Ekb= -0.399525   kbcos= -0.001223

KBgen: Total number of  Kleinman-Bylander projectors:   16
atom: -------------------------------------------------------------------------

atom: SANKEY-TYPE ORBITALS:
atom: Selected multiple-zeta basis: split     

SPLIT: Orbitals with angular momentum L= 0

SPLIT: Basis orbitals for state 2s

SPLIT: PAO cut-off radius determined from an
SPLIT: energy shift=  0.007350 Ry

   izeta = 1
                 lambda =    1.000000
                     rc =    4.632753
                 energy =   -1.002270
                kinetic =    0.855760
    potential(screened) =   -1.858031
       potential(ionic) =   -5.417575

   izeta = 2
                 rmatch =    3.431921
              splitnorm =    0.150000
                 energy =   -0.867111
                kinetic =    1.300804
    potential(screened) =   -2.167915
       potential(ionic) =   -5.962684

SPLIT: Orbitals with angular momentum L= 1

SPLIT: Basis orbitals for state 2p

SPLIT: PAO cut-off radius determined from an
SPLIT: energy shift=  0.007350 Ry

   izeta = 1
                 lambda =    1.000000
                     rc =    5.658549
                 energy =   -0.381140
                kinetic =    2.399701
    potential(screened) =   -2.780841
       potential(ionic) =   -6.206085

   izeta = 2
                 rmatch =    3.653288
              splitnorm =    0.150000
                 energy =   -0.249149
                kinetic =    3.542762
    potential(screened) =   -3.791911
       potential(ionic) =   -7.581078

POLgen: Perturbative polarization orbital with L=  2

POLgen: Polarization orbital for state 2p

   izeta = 1
                     rc =    5.658549
                 energy =    1.109913
                kinetic =    2.304789
    potential(screened) =   -1.194876
       potential(ionic) =   -4.013592
atom: Total number of Sankey-type orbitals: 13

atm_pop: Valence configuration (for local Pseudopot. screening):
 2s( 2.00)                                                            
 2p( 2.00)                                                            
Vna: chval, zval:    4.00000   4.00000

Vna:  Cut-off radius for the neutral-atom potential:   5.658549
comcore: Pseudo-core radius Rcore=  1.791422

atom: _________________________________________________________________________

prinput: Basis input ----------------------------------------------------------

PAO.BasisType split     

%block ChemicalSpeciesLabel
    1    5 B                       # Species index, atomic number, species label
    2    6 C                       # Species index, atomic number, species label
%endblock ChemicalSpeciesLabel

%block PAO.Basis                 # Define Basis set
B                     2                    # Species label, number of l-shells
 n=2   0   2                         # n, l, Nzeta 
   5.422      4.223   
   1.000      1.000   
 n=2   1   2 P   1                   # n, l, Nzeta, Polarization, NzetaPol
   6.790      4.609   
   1.000      1.000   
C                     2                    # Species label, number of l-shells
 n=2   0   2                         # n, l, Nzeta 
   4.633      3.432   
   1.000      1.000   
 n=2   1   2 P   1                   # n, l, Nzeta, Polarization, NzetaPol
   5.659      3.653   
   1.000      1.000   
%endblock PAO.Basis

prinput: ----------------------------------------------------------------------

coor:   Atomic-coordinates input format  =     Fractional

siesta: Atomic coordinates (Bohr) and species
siesta:     -2.35420  38.89134   0.00000  1        1
siesta:     -2.35420  41.57980   0.00000  1        2
siesta:     -4.68258  34.85847   0.00000  1        3
siesta:     -4.68258  37.54693   0.00000  1        4
siesta:      2.30256   9.31683   0.00000  1        5
siesta:     -0.02582  10.66124   0.00000  1        6
siesta:     -0.02582  13.34970   0.00000  1        7
siesta:     -4.68258  21.41544   0.00000  1        8
siesta:     -2.35420  22.75985   0.00000  1        9
siesta:     -9.33934  21.41544   0.00000  1       10
siesta:    -11.66772  22.75985   0.00000  1       11
siesta:     -0.02582  26.79272   0.00000  1       12
siesta:     -0.02582  29.48119   0.00000  1       13
siesta:      2.30256  33.51406   0.00000  1       14
siesta:     -0.02582  34.85847   0.00000  1       15
siesta:     -0.02582   2.59549   0.00000  2       16
siesta:     -0.02582   5.28395   0.00000  2       17
siesta:      2.30256  38.89134   0.00000  2       18
siesta:      2.30256  41.57980   0.00000  2       19
siesta:      4.63094  34.85847   0.00000  2       20
siesta:      4.63094  37.54693   0.00000  2       21
siesta:      6.95932  30.82560   0.00000  2       22
siesta:      6.95932  33.51406   0.00000  2       23
siesta:      9.28770  26.79272   0.00000  2       24
siesta:      9.28770  29.48119   0.00000  2       25
siesta:      2.30256   6.62836   0.00000  2       26
siesta:      4.63094  10.66124   0.00000  2       27
siesta:      4.63094  13.34970   0.00000  2       28
siesta:      6.95932  14.69411   0.00000  2       29
siesta:      6.95932  17.38257   0.00000  2       30
siesta:      9.28770  18.72698   0.00000  2       31
siesta:      9.28770  21.41544   0.00000  2       32
siesta:     11.61608  22.75985   0.00000  2       33
siesta:     11.61608  25.44831   0.00000  2       34
siesta:     -2.35420   6.62836   0.00000  2       35
siesta:     -2.35420   9.31683   0.00000  2       36
siesta:      2.30256  14.69411   0.00000  2       37
siesta:      2.30256  17.38257   0.00000  2       38
siesta:      4.63094  18.72698   0.00000  2       39
siesta:      4.63094  21.41544   0.00000  2       40
siesta:      6.95932  22.75985   0.00000  2       41
siesta:      6.95932  25.44831   0.00000  2       42
siesta:     -4.68258  10.66124   0.00000  2       43
siesta:     -4.68258  13.34970   0.00000  2       44
siesta:     -2.35420  14.69411   0.00000  2       45
siesta:     -2.35420  17.38257   0.00000  2       46
siesta:     -0.02582  18.72698   0.00000  2       47
siesta:     -0.02582  21.41544   0.00000  2       48
siesta:      2.30256  22.75985   0.00000  2       49
siesta:      2.30256  25.44831   0.00000  2       50
siesta:     -7.01096  14.69411   0.00000  2       51
siesta:     -7.01096  17.38257   0.00000  2       52
siesta:     -4.68258  18.72698   0.00000  2       53
siesta:     -2.35420  25.44831   0.00000  2       54
siesta:     -9.33934  18.72698   0.00000  2       55
siesta:     -7.01096  22.75985   0.00000  2       56
siesta:     -7.01096  25.44831   0.00000  2       57
siesta:    -11.66772  25.44831   0.00000  2       58
siesta:     -9.33934  26.79272   0.00000  2       59
siesta:     -9.33934  29.48119   0.00000  2       60
siesta:      4.63094  26.79272   0.00000  2       61
siesta:      4.63094  29.48119   0.00000  2       62
siesta:     -4.68258  26.79272   0.00000  2       63
siesta:     -4.68258  29.48119   0.00000  2       64
siesta:      2.30256  30.82560   0.00000  2       65
siesta:     -2.35420  30.82560   0.00000  2       66
siesta:     -2.35420  33.51406   0.00000  2       67
siesta:     -7.01096  30.82560   0.00000  2       68
siesta:     -7.01096  33.51406   0.00000  2       69
siesta:     -0.02582  37.54693   0.00000  2       70
siesta:     -0.02582  42.92421   0.00000  2       71
siesta:     -0.02582  45.61267   0.00000  2       72

siesta: System type = slab      

initatomlists: Number of atoms, orbitals, and projectors:     72   936  1152

siesta: ******************** Simulation parameters ****************************
siesta:
siesta: The following are some of the parameters of the simulation.
siesta: A complete list of the parameters used, including default values,
siesta: can be found in file out.fdf
siesta:
redata: Non-Collinear-spin run           =     F
redata: SpinPolarized (Up/Down) run      =     F
redata: Number of spin components        =     1
redata: Long output                      =     F
redata: Number of Atomic Species         =        2
redata: Charge density info will appear in .RHO file
redata: Write Mulliken Pop.              =     NO
redata: Mesh Cutoff                      =   200.0000  Ry
redata: Net charge of the system         =     0.0000 |e|
redata: Max. number of SCF Iter          =      500
redata: SCF convergence failure will abort job
redata: Performing Pulay mixing using    =    10 iterations
redata: Mix DM in first SCF step ?       =     F
redata: Write Pulay info on disk?        =     F
redata: Discard 1st Pulay DM after  kick =     F
redata: New DM Mixing Weight             =     0.0500
redata: New DM Occupancy tolerance       = 0.000000000001
redata: No kicks to SCF
redata: DM Mixing Weight for Kicks       =     0.5000
redata: DM Tolerance for SCF             =     0.000100
redata: Require Energy convergence for SCF =     F
redata: DM Energy tolerance for SCF      =     0.000100 eV
redata: Require Harris convergence for SCF =     F
redata: DM Harris energy tolerance for SCF =     0.000100 eV
redata: Using Saved Data (generic)   =     F
redata: Use continuation files for DM    =     T
redata: Neglect nonoverlap interactions  =     F
redata: Method of Calculation            =     Diagonalization
redata: Divide and Conquer               =     T
redata: Electronic Temperature           =     0.0019  Ry
redata: Fix the spin of the system       =     F
redata: Dynamics option                  =     Verlet MD run
redata: Initial MD time step             =        1
redata:   Final MD time step             =        1
redata: Length of MD time step           =     1.0000  fs
redata: Initial Temperature of MD run    =     0.0000  K
redata: Perform a MD quench              =     F
redata: ***********************************************************************
Total number of electrons:   273.000000
Total ionic charge:   273.000000

* ProcessorY, Blocksize:    3  24

k-point displ. along   1 input, could be:     0.50    0.00
k-point displ. along   2 input, could be:     0.50    0.00
 Kpoints in:          231 . Kpoints trimmed:          231

siesta: k-grid: Number of k-points =   231
siesta: k-grid: Cutoff (effective) =     5.000 Ang
siesta: k-grid: Supercell and displacements
siesta: k-grid:   21   0   0      0.500
siesta: k-grid:    0  21   0      0.500
siesta: k-grid:    0   0   1      0.000
Naive supercell factors:     2    2    2

superc: Internal auxiliary supercell:     2 x     2 x     2  =       8
superc: Number of atoms, orbitals, and projectors:    576   7488   9216

* Maximum dynamic memory allocated =     4 MB

siesta:                 ==============================
                            Begin MD step =      1
                        ==============================

superc: Internal auxiliary supercell:     2 x     2 x     2  =       8
superc: Number of atoms, orbitals, and projectors:    576   7488   9216

outcell: Unit cell vectors (Ang):
       12.804619    7.392750    0.000000
        0.000000   14.785500    0.000000
        0.000000    0.000000   10.000000

outcell: Cell vector modules (Ang)   :   14.785500   14.785500   10.000000
outcell: Cell angles (23,13,12) (deg):     90.0000     90.0000     60.0000
outcell: Cell volume (Ang**3)        :   1893.2269
New_DM. Step:     1
Initializing Density Matrix...

InitMesh: MESH =   120 x   120 x    90 =     1296000
InitMesh: Mesh cutoff (required, used) =   200.000   223.865 Ry

* Maximum dynamic memory allocated =   158 MB

stepf: Fermi-Dirac step function

siesta: Program's energy decomposition (eV):
siesta: Ebs     =     -5590.827943
siesta: Eions   =     16482.160403
siesta: Ena     =      4357.957757
siesta: Ekin    =      5587.107004
siesta: Enl     =       771.500007
siesta: DEna    =        -0.000010
siesta: DUscf   =         0.000000
siesta: DUext   =         0.000000
siesta: Exc     =     -4178.566046
siesta: eta*DQ  =         0.000000
siesta: Emadel  =         0.000000
siesta: Emeta   =         0.000000
siesta: Emolmec =         0.000000
siesta: Ekinion =         0.000000
siesta: Eharris =     -9760.546132
siesta: Etot    =     -9944.161691
siesta: FreeEng =     -9944.161691

siesta: iscf   Eharris(eV)      E_KS(eV)   FreeEng(eV)   dDmax  Ef(eV)
siesta:    1    -9760.5461    -9944.1617    -9944.1617  7.1724 -8.2183
timer: Routine,Calls,Time,% = IterSCF        1    3048.936  99.59
elaps: Routine,Calls,Wall,% = IterSCF        1     254.681  99.59
siesta:    2   -14898.9516    -8909.0954    -8909.1293 13.9883 -5.7146
siesta:    3    -9915.9648    -9720.1160    -9720.1760  1.6474 -4.9931
siesta:    4    -9789.4260    -9688.5968    -9688.6332  1.6122 -4.8577
siesta:    5    -9653.0518    -9646.7960    -9646.8308  1.4361 -5.2537
siesta:    6    -9624.0584    -9620.5039    -9620.5581  1.3195 -5.0039
siesta:    7    -9616.9585    -9608.5605    -9608.5953  1.2705 -5.0696
siesta:    8    -9604.9224    -9595.3296    -9595.3715  0.9613 -5.0172
siesta:    9    -9603.3989    -9590.3752    -9590.4319  0.8830 -5.0143
siesta:   10    -9604.7806    -9584.1841    -9584.2404  0.7286 -4.8843
siesta:   11    -9602.3894    -9582.9881    -9583.0394  0.4823 -4.8896
siesta:   12    -9600.3547    -9581.0318    -9581.0745  0.5070 -4.9163
siesta:   13    -9600.2028    -9581.1928    -9581.2489  0.5923 -4.9143
siesta:   14    -9599.8765    -9581.9428    -9581.9932  0.4041 -4.9248
siesta:   15    -9599.6516    -9583.0425    -9583.1071  0.4742 -4.9141
siesta:   16    -9599.5035    -9589.0331    -9589.0925  0.5490 -4.9291
siesta:   17    -9599.2373    -9589.2987    -9589.3694  0.4346 -4.9694
siesta:   18    -9599.2350    -9591.9590    -9592.0149  0.3740 -4.9937
siesta:   19    -9599.1366    -9595.1344    -9595.1879  0.1463 -5.0263
siesta:   20    -9599.0431    -9596.1884    -9596.2469  0.2531 -5.0276
siesta:   21    -9599.0131    -9597.9470    -9598.0077  0.1141 -5.0550
siesta:   22    -9598.9861    -9598.9229    -9598.9875  0.1208 -5.0598
siesta:   23    -9598.9835    -9599.7402    -9599.8066  0.1367 -5.0571
siesta:   24    -9598.9609    -9600.2734    -9600.3383  0.0910 -5.0577
siesta:   25    -9598.9462    -9600.6181    -9600.6832  0.0727 -5.0546
siesta:   26    -9598.9427    -9601.1686    -9601.2360  0.0827 -5.0488
siesta:   27    -9598.9386    -9601.4063    -9601.4728  0.0381 -5.0483
siesta:   28    -9598.9392    -9600.7520    -9600.8175  0.0297 -5.0403
siesta:   29    -9598.9383    -9600.3229    -9600.3881  0.0205 -5.0312
siesta:   30    -9598.9344    -9599.7957    -9599.8581  0.0087 -5.0273
siesta:   31    -9598.9326    -9599.7065    -9599.7699  0.0058 -5.0289
siesta:   32    -9598.9320    -9599.5585    -9599.6232  0.0043 -5.0290
siesta:   33    -9598.9325    -9599.4028    -9599.4680  0.0040 -5.0286
siesta:   34    -9598.9323    -9599.3096    -9599.3740  0.0029 -5.0295
siesta:   35    -9598.9325    -9599.1456    -9599.2102  0.0019 -5.0296
siesta:   36    -9598.9322    -9599.0981    -9599.1625  0.0020 -5.0301
siesta:   37    -9598.9322    -9598.9743    -9599.0389  0.0012 -5.0301
siesta:   38    -9598.9322    -9598.9487    -9599.0133  0.0008 -5.0307
siesta:   39    -9598.9322    -9598.9331    -9598.9977  0.0006 -5.0308
siesta:   40    -9598.9322    -9598.9194    -9598.9840  0.0005 -5.0308
siesta:   41    -9598.9322    -9598.9139    -9598.9785  0.0007 -5.0308
siesta:   42    -9598.9322    -9598.9054    -9598.9700  0.0005 -5.0307
siesta:   43    -9598.9322    -9598.9020    -9598.9666  0.0004 -5.0307
siesta:   44    -9598.9322    -9598.9172    -9598.9818  0.0003 -5.0306
siesta:   45    -9598.9322    -9598.9325    -9598.9971  0.0002 -5.0307
siesta:   46    -9598.9322    -9598.9326    -9598.9972  0.0002 -5.0308
siesta:   47    -9598.9322    -9598.9288    -9598.9934  0.0000 -5.0308

siesta: E_KS(eV) =            -9598.9284

siesta: E_KS - E_eggbox =     -9598.9284

siesta: Atomic forces (eV/Ang):
----------------------------------------
   Tot   -0.080114    0.036810    0.000000
----------------------------------------
   Max  561.734281
   Res  138.492083    sqrt( Sum f_i^2 / 3N )
----------------------------------------
   Max  561.734281    constrained

Stress-tensor-Voigt (kbar):     -666.78    -2476.70       -0.48       28.68        0.00        0.00
(Free)E + p*V (eV/cell)    -8360.6415
Target enthalpy (eV/cell)    -9598.9930

siesta: Stress tensor (static) (eV/Ang**3):
        -0.416169    0.017902    0.000000
         0.017902   -1.545815    0.000000
         0.000000    0.000000   -0.000303

siesta: Pressure (static):       1047.98808563  kBar

siesta: Stress tensor (total) (eV/Ang**3):
        -0.416169    0.017902    0.000000
         0.017902   -1.545815    0.000000
         0.000000    0.000000   -0.000303

siesta: Pressure (total):       1047.98808563  kBar

siesta: Temp_ion =       0.000 K

* Maximum dynamic memory allocated =   171 MB
Computing bands...

siesta: Program's energy decomposition (eV):
siesta: Ebs     =     -4270.388486
siesta: Eions   =     16482.160403
siesta: Ena     =      4357.957757
siesta: Ekin    =      8367.902883
siesta: Enl     =      -879.429799
siesta: DEna    =      -721.577123
siesta: DUscf   =        95.490325
siesta: DUext   =         0.000000
siesta: Exc     =     -4337.112010
siesta: eta*DQ  =         0.000000
siesta: Emadel  =         0.000000
siesta: Emeta   =         0.000000
siesta: Emolmec =         0.000000
siesta: Ekinion =         0.000000
siesta: Eharris =     -9598.932200
siesta: Etot    =     -9598.928371
siesta: FreeEng =     -9598.992966

siesta: Final energy (eV):
siesta:  Band Struct. =   -4270.388486
siesta:       Kinetic =    8367.902883
siesta:       Hartree =   26704.077628
siesta:    Ext. field =       0.000000
siesta:   Exch.-corr. =   -4337.112010
siesta:  Ion-electron =  -61512.062320
siesta:       Ion-ion =   21178.265448
siesta:       Ekinion =       0.000000
siesta:         Total =   -9598.928371

siesta: Atomic forces (eV/Ang):
siesta:      1   -6.839423  110.529338    0.000000
siesta:      2   -5.566174 -391.857905    0.000000
siesta:      3  -22.325711   -1.310533    0.000000
siesta:      4  -20.136828 -390.750600    0.000000
siesta:      5   -4.497665 -106.150304    0.000000
siesta:      6    6.652008  385.173134    0.000000
siesta:      7    5.908579 -113.916883    0.000000
siesta:      8   -3.505277   -1.231909    0.000000
siesta:      9    3.361188    1.345688    0.000000
siesta:     10    0.368625   -3.828395    0.000000
siesta:     11   -6.577712    4.053297    0.000000
siesta:     12   -0.842655   -2.891438    0.000000
siesta:     13    0.833593 -410.865758    0.000000
siesta:     14   19.647290 -402.924363    0.000000
siesta:     15    3.158564  110.346151    0.000000
siesta:     16    0.058555  410.050688    0.000000
siesta:     17    2.110422 -123.041309    0.000000
siesta:     18   -5.003185  129.587297    0.000000
siesta:     19   28.250638 -554.644077    0.000000
siesta:     20   22.680791    0.272063    0.000000
siesta:     21   32.841919 -551.078151    0.000000
siesta:     22    2.004730   -0.184465    0.000000
siesta:     23   -1.704100    2.687386    0.000000
siesta:     24    2.161744    1.489818    0.000000
siesta:     25   -0.897934    0.867745    0.000000
siesta:     26   12.770416  399.608599    0.000000
siesta:     27   26.507114  545.020963    0.000000
siesta:     28   26.323403   -4.612921    0.000000
siesta:     29   -2.421458   -2.031451    0.000000
siesta:     30    1.665653   -0.221005    0.000000
siesta:     31   -0.751945   -0.189117    0.000000
siesta:     32    2.333826   -1.998398    0.000000
siesta:     33    0.030024    6.724445    0.000000
siesta:     34   -0.098040   -6.681464    0.000000
siesta:     35  -12.954369  548.624939    0.000000
siesta:     36    3.471083 -121.413619    0.000000
siesta:     37   16.638487  549.218122    0.000000
siesta:     38   21.416440   -6.729698    0.000000
siesta:     39   -0.232623    2.534142    0.000000
siesta:     40    0.541991   -0.860219    0.000000
siesta:     41   -0.335657    0.576169    0.000000
siesta:     42    0.046287   -0.606615    0.000000
siesta:     43  -30.158101  398.468057    0.000000
siesta:     44  -23.795379    3.527693    0.000000
siesta:     45  -26.498208  403.990116    0.000000
siesta:     46  -23.455645   -3.382008    0.000000
siesta:     47   -0.202575  561.734281    0.000000
siesta:     48    3.214233   -0.631692    0.000000
siesta:     49   -0.250116   -0.554850    0.000000
siesta:     50    2.603221   -1.689328    0.000000
siesta:     51    2.890507   -2.805740    0.000000
siesta:     52   -2.783427   -2.070854    0.000000
siesta:     53    1.595975   -2.021644    0.000000
siesta:     54   -1.790226    2.325438    0.000000
siesta:     55    2.191150   -2.624456    0.000000
siesta:     56    0.366124    3.577691    0.000000
siesta:     57    0.468945   -0.734002    0.000000
siesta:     58    0.526365    0.214002    0.000000
siesta:     59   -3.762542    0.903901    0.000000
siesta:     60    1.411489    0.542186    0.000000
siesta:     61   -0.027879   -0.617700    0.000000
siesta:     62   -1.281176   -1.504526    0.000000
siesta:     63    0.118609   -0.337718    0.000000
siesta:     64    0.751613   -0.977817    0.000000
siesta:     65   21.183557    0.899398    0.000000
siesta:     66  -21.051382    2.113976    0.000000
siesta:     67  -21.756514 -548.470229    0.000000
siesta:     68   -3.024111    0.736050    0.000000
siesta:     69    1.137723    0.752940    0.000000
siesta:     70   -6.125721 -392.648780    0.000000
siesta:     71  -19.318542  123.810825    0.000000
siesta:     72   -0.350700 -551.177786    0.000000
siesta: ----------------------------------------
siesta:    Tot   -0.080114    0.036810    0.000000

siesta: Stress tensor (static) (eV/Ang**3):
siesta:    -0.416169    0.017902    0.000000
siesta:     0.017902   -1.545815    0.000000
siesta:     0.000000    0.000000   -0.000303

siesta: Cell volume =       1893.226884 Ang**3

siesta: Pressure (static):
siesta:                Solid            Molecule  Units
siesta:           0.00712394          0.10556371  Ry/Bohr**3
siesta:           0.65409564          9.69250063  eV/Ang**3
siesta:        1047.98808563      15529.26589264  kBar
(Free)E+ p_basis*V_orbitals  =       -9563.516047
(Free)Eharris+ p_basis*V_orbitals  =       -9563.519418

siesta: Electric dipole (a.u.)  =    0.000000    0.000000    0.000000
siesta: Electric dipole (Debye) =    0.000000    0.000000    0.000000

* Maximum dynamic memory allocated : Node    0 =   171 MB
* Maximum dynamic memory allocated : Node    1 =    68 MB
* Maximum dynamic memory allocated : Node    2 =    71 MB
* Maximum dynamic memory allocated : Node    3 =   158 MB
* Maximum dynamic memory allocated : Node    4 =   166 MB
* Maximum dynamic memory allocated : Node    5 =    61 MB
* Maximum dynamic memory allocated : Node    6 =    64 MB
* Maximum dynamic memory allocated : Node    7 =   157 MB
* Maximum dynamic memory allocated : Node    8 =   149 MB
* Maximum dynamic memory allocated : Node    9 =    60 MB
* Maximum dynamic memory allocated : Node   10 =    61 MB
* Maximum dynamic memory allocated : Node   11 =   141 MB

* Maximum memory occured during matrixMtoO                    

timer: CPU execution times:
timer:  Routine       Calls   Time/call    Tot.time        %
timer:  siesta            1  138990.401  138990.401   100.00
timer:  Setup             1       3.415       3.415     0.00
timer:  bands             3     225.909     677.728     0.49
timer:  writewave         1       0.026       0.026     0.00
timer:  KSV_init          1       0.004       0.004     0.00
timer:  IterMD            1  138302.241  138302.241    99.50
timer:  hsparse           1       0.277       0.277     0.00
timer:  overlap           1       7.205       7.205     0.01
timer:  IterSCF          47    2939.274  138145.860    99.39
timer:  kinefsm           2       3.663       7.326     0.01
timer:  nlefsm            2      20.245      40.489     0.03
timer:  DHSCF            48      79.803    3830.539     2.76
timer:  DHSCF1            1       1.195       1.195     0.00
timer:  DHSCF2            1      32.988      32.988     0.02
timer:  REORD           386       0.002       0.880     0.00
timer:  POISON           49       0.448      21.934     0.02
timer:  DHSCF3           48      78.502    3768.093     2.71
timer:  rhoofd           48      17.208     825.978     0.59
timer:  cellXC           48       2.409     115.621     0.08
timer:  vmat             48      37.123    1781.883     1.28
timer:  MolMec            2       0.000       0.000     0.00
timer:  diagon           47    2858.407  134345.117    96.66
timer:  c-eigval      10978       5.570   61151.804    44.00
timer:  c-buildHS     10978       0.036     396.559     0.29
timer:  cdiag         21835       5.671  123819.800    89.09
timer:  cdiag1        21835       0.261    5696.324     4.10
timer:  cdiag2        21835       1.828   39911.229    28.72
timer:  cdiag3        21835       3.369   73554.701    52.92
timer:  cdiag4        21835       0.086    1888.046     1.36
timer:  c-eigvec      10857       5.840   63399.949    45.61
timer:  c-buildD      10857       0.959   10412.231     7.49
timer:  DHSCF4            1      27.931      27.931     0.02
timer:  dfscf             1      25.833      25.833     0.02
timer:  overfsm           1       0.320       0.320     0.00
timer:  optical           1       6.412       6.412     0.00
  

elaps: ELAPSED times:
elaps:  Routine       Calls   Time/call    Tot.time        %
elaps:  siesta            1   11609.791   11609.791   100.00
elaps:  Setup             1       0.286       0.286     0.00
elaps:  bands             3      18.885      56.655     0.49
elaps:  writewave         1       0.002       0.002     0.00
elaps:  KSV_init          1       0.000       0.000     0.00
elaps:  IterMD            1   11552.308   11552.308    99.50
elaps:  hsparse           1       0.028       0.028     0.00
elaps:  overlap           1       0.716       0.716     0.01
elaps:  IterSCF          47     245.516   11539.245    99.39
elaps:  kinefsm           2       0.367       0.734     0.01
elaps:  nlefsm            2       1.790       3.580     0.03
elaps:  DHSCF            48       6.717     322.402     2.78
elaps:  DHSCF1            1       0.101       0.101     0.00
elaps:  DHSCF2            1       2.755       2.755     0.02
elaps:  REORD           386       0.000       0.116     0.00
elaps:  POISON           49       0.038       1.854     0.02
elaps:  DHSCF3           48       6.558     314.799     2.71
elaps:  rhoofd           48       3.127     150.114     1.29
elaps:  cellXC           48       0.201       9.638     0.08
elaps:  vmat             48       3.102     148.884     1.28
elaps:  MolMec            2       0.000       0.000     0.00
elaps:  diagon           47     238.767   11222.063    96.66
elaps:  c-eigval      10978       0.465    5107.915    44.00
elaps:  c-buildHS     10978       0.004      41.343     0.36
elaps:  cdiag         21835       0.469   10243.800    88.23
elaps:  cdiag1        21835       0.021     464.380     4.00
elaps:  cdiag2        21835       0.153    3336.703    28.74
elaps:  cdiag3        21835       0.282    6152.711    53.00
elaps:  cdiag4        21835       0.007     152.883     1.32
elaps:  c-eigvec      10857       0.480    5211.665    44.89
elaps:  c-buildD      10857       0.088     953.638     8.21
elaps:  DHSCF4            1       4.699       4.699     0.04
elaps:  dfscf             1       4.438       4.438     0.04
elaps:  overfsm           1       0.034       0.034     0.00
elaps:  optical           1       0.000       0.000     0.00
  
>> End of run:   4-MAY-2016   0:53:59
