Siesta Version:                                        siesta-3.2-pl-3
Architecture  : x86_64-unknown-linux-gnu--unknown
Compiler flags: mpiifort -g -O2 -fPIC -xSSE4.1 -fp-model source -shared-intel 
PARALLEL version

* Running on    8 nodes in parallel
>> Start of run:  25-APR-2016   4:20:43

                           ***********************       
                           *  WELCOME TO SIESTA  *       
                           ***********************       

reinit: Reading from standard input
************************** Dump of input data file ****************************
#(1) General system descriptors
SystemName            GRP_doping    # Descriptive name of the system
SystemLabel           GRP_doping    # Short name for naming files
%include STRUCT.fdf
%include KPT.fdf
%include BASIS.fdf
#%include TS.fdf # for transiesta calculation
#(4) DFT, Grid, SCF
XC.functional         GGA           # LDA or GGA (default = LDA)
XC.authors            PBE           # CA (Ceperley-Aldr) = PZ
                                    #    (Perdew-Zunger) - LDA - Default
                                    # PW92 (Perdew-Wang-92) - LDA
                                    # PBE (Perdew-Burke-Ernzerhof) - GGA
MeshCutoff            200.000000    Ry      # Default: 50.0 Ry ~ 0.444 Bohr
                                    #         100.0 Ry ~ 0.314 Bohr
MaxSCFIterations      500           # Default: 50
DM.MixingWeight       0.05          # Default: 0.25
DM.NumberPulay        10            # Default: 0
DM.PulayOnFile        F             # SystemLabel.P1, SystemLabel.P2
DM.Tolerance          1.d-4         # Default: 1.d-4
DM.UseSaveDM          .true.        # because of the bug
SCFMustConverge       .true.
NeglNonOverlapInt     F             # Default: F
#(5) Eigenvalue problem: order-N or diagonalization
SolutionMethod        Diagon        # or Transiesta
ElectronicTemperature 300.0 K       # Default: 300.0 K
#(6) Molecular dynamics and relaxations
#MD.TypeOfRun          CG            # Type of dynamics:
#MD.VariableCell       F
#MD.NumCGsteps         0           # 0 for single-point / 100 for gopt
#MD.MaxCGDispl         0.2 Bohr      # Default: 0.2 Bohr
#MD.MaxForceTol        0.02 eV/Ang   # Default: 0.04 eV/Ang
#MD.MaxStressTol       1.0 GPa       # Default: 1.0 GPa
# Geometry Constraints
#%block GeometryConstraints
#	position from 1 to 44
#%endblock GeometryConstraints
BandLinesScale   pi/a
%block BandLines
 1   0.00000000  0.00000000  0.00000000
50   0.00000000  0.07809418  0.00000000
50   0.04509075  0.07809242  0.00000000
20   0.00000000  0.00000000  0.00000000
%endblock BandLines
************************** End of input data file *****************************

reinit: -----------------------------------------------------------------------
reinit: System Name: GRP_doping
reinit: -----------------------------------------------------------------------
reinit: System Label: GRP_doping                                                  
reinit: -----------------------------------------------------------------------

initatom: Reading input for the pseudopotentials and atomic orbitals ----------
 Species number:            1  Label: B Atomic number:           5
 Species number:            2  Label: C Atomic number:           6
Ground state valence configuration:   2s02  2p01
Reading pseudopotential information in formatted form from B.psf

Valence configuration for pseudopotential generation:
2s( 2.00) rc: 1.74
2p( 1.00) rc: 1.74
3d( 0.00) rc: 1.74
4f( 0.00) rc: 1.74
Ground state valence configuration:   2s02  2p02
Reading pseudopotential information in formatted form from C.psf

Valence configuration for pseudopotential generation:
2s( 2.00) rc: 1.54
2p( 2.00) rc: 1.54
3d( 0.00) rc: 1.54
4f( 0.00) rc: 1.54
For B, standard SIESTA heuristics set lmxkb to 3
 (one more than the basis l, including polarization orbitals).
Use PS.lmax or PS.KBprojectors blocks to override.
For C, standard SIESTA heuristics set lmxkb to 3
 (one more than the basis l, including polarization orbitals).
Use PS.lmax or PS.KBprojectors blocks to override.

<basis_specs>
===============================================================================
B                    Z=   5    Mass=  10.810        Charge= 0.17977+309
Lmxo=1 Lmxkb= 3    BasisType=split      Semic=F
L=0  Nsemic=0  Cnfigmx=2
          n=1  nzeta=2  polorb=0
            splnorm:   0.15000    
               vcte:    0.0000    
               rinn:    0.0000    
                rcs:    0.0000      0.0000    
            lambdas:    1.0000      1.0000    
L=1  Nsemic=0  Cnfigmx=2
          n=1  nzeta=2  polorb=1
            splnorm:   0.15000    
               vcte:    0.0000    
               rinn:    0.0000    
                rcs:    0.0000      0.0000    
            lambdas:    1.0000      1.0000    
-------------------------------------------------------------------------------
L=0  Nkbl=1  erefs: 0.17977+309
L=1  Nkbl=1  erefs: 0.17977+309
L=2  Nkbl=1  erefs: 0.17977+309
L=3  Nkbl=1  erefs: 0.17977+309
===============================================================================
</basis_specs>

atom: Called for B                     (Z =   5)

read_vps: Pseudopotential generation method:
read_vps: ATM3      Troullier-Martins                       
Total valence charge:    3.00000

read_vps: Pseudopotential includes a core correction:
read_vps: Pseudo-core for xc-correction

xc_check: Exchange-correlation functional:
xc_check: GGA Perdew, Burke & Ernzerhof 1996
V l=0 = -2*Zval/r beyond r=  1.7165
V l=1 = -2*Zval/r beyond r=  1.7165
V l=2 = -2*Zval/r beyond r=  1.7165
V l=3 = -2*Zval/r beyond r=  1.6951
All V_l potentials equal beyond r=  1.7165
This should be close to max(r_c) in ps generation
All pots = -2*Zval/r beyond r=  1.7165

VLOCAL1: 99.0% of the norm of Vloc inside     14.733 Ry
VLOCAL1: 99.9% of the norm of Vloc inside     33.577 Ry
atom: Maximum radius for 4*pi*r*r*local-pseudopot. charge    2.04484
atom: Maximum radius for r*vlocal+2*Zval:    1.75994
GHOST: No ghost state for L =  0
GHOST: No ghost state for L =  1
GHOST: No ghost state for L =  2
GHOST: No ghost state for L =  3

KBgen: Kleinman-Bylander projectors: 
   l= 0   rc=  1.897051   el= -0.693730   Ekb=  4.595746   kbcos=  0.286105
   l= 1   rc=  1.920920   el= -0.265236   Ekb= -2.350715   kbcos= -0.315747
   l= 2   rc=  2.044840   el=  0.002055   Ekb= -0.690767   kbcos= -0.013822
   l= 3   rc=  2.149707   el=  0.003188   Ekb= -0.315358   kbcos= -0.002055

KBgen: Total number of  Kleinman-Bylander projectors:   16
atom: -------------------------------------------------------------------------

atom: SANKEY-TYPE ORBITALS:
atom: Selected multiple-zeta basis: split     

SPLIT: Orbitals with angular momentum L= 0

SPLIT: Basis orbitals for state 2s

SPLIT: PAO cut-off radius determined from an
SPLIT: energy shift=  0.007350 Ry

   izeta = 1
                 lambda =    1.000000
                     rc =    5.422032
                 energy =   -0.686029
                kinetic =    0.576707
    potential(screened) =   -1.262736
       potential(ionic) =   -3.271094

   izeta = 2
                 rmatch =    4.222573
              splitnorm =    0.150000
                 energy =   -0.602132
                kinetic =    0.858975
    potential(screened) =   -1.461107
       potential(ionic) =   -3.582536

SPLIT: Orbitals with angular momentum L= 1

SPLIT: Basis orbitals for state 2p

SPLIT: PAO cut-off radius determined from an
SPLIT: energy shift=  0.007350 Ry

   izeta = 1
                 lambda =    1.000000
                     rc =    6.790259
                 energy =   -0.258578
                kinetic =    1.481412
    potential(screened) =   -1.739989
       potential(ionic) =   -3.657461

   izeta = 2
                 rmatch =    4.608740
              splitnorm =    0.150000
                 energy =   -0.173757
                kinetic =    2.186690
    potential(screened) =   -2.360447
       potential(ionic) =   -4.464260

POLgen: Perturbative polarization orbital with L=  2

POLgen: Polarization orbital for state 2p

   izeta = 1
                     rc =    6.790259
                 energy =    0.684082
                kinetic =    1.471481
    potential(screened) =   -0.787399
       potential(ionic) =   -2.406985
atom: Total number of Sankey-type orbitals: 13

atm_pop: Valence configuration (for local Pseudopot. screening):
 2s( 2.00)                                                            
 2p( 1.00)                                                            
Vna: chval, zval:    3.00000   3.00000

Vna:  Cut-off radius for the neutral-atom potential:   6.790259
comcore: Pseudo-core radius Rcore=  2.122997

atom: _________________________________________________________________________

<basis_specs>
===============================================================================
C                    Z=   6    Mass=  12.010        Charge= 0.17977+309
Lmxo=1 Lmxkb= 3    BasisType=split      Semic=F
L=0  Nsemic=0  Cnfigmx=2
          n=1  nzeta=2  polorb=0
            splnorm:   0.15000    
               vcte:    0.0000    
               rinn:    0.0000    
                rcs:    0.0000      0.0000    
            lambdas:    1.0000      1.0000    
L=1  Nsemic=0  Cnfigmx=2
          n=1  nzeta=2  polorb=1
            splnorm:   0.15000    
               vcte:    0.0000    
               rinn:    0.0000    
                rcs:    0.0000      0.0000    
            lambdas:    1.0000      1.0000    
-------------------------------------------------------------------------------
L=0  Nkbl=1  erefs: 0.17977+309
L=1  Nkbl=1  erefs: 0.17977+309
L=2  Nkbl=1  erefs: 0.17977+309
L=3  Nkbl=1  erefs: 0.17977+309
===============================================================================
</basis_specs>

atom: Called for C                     (Z =   6)

read_vps: Pseudopotential generation method:
read_vps: ATM3      Troullier-Martins                       
Total valence charge:    4.00000

read_vps: Pseudopotential includes a core correction:
read_vps: Pseudo-core for xc-correction

xc_check: Exchange-correlation functional:
xc_check: GGA Perdew, Burke & Ernzerhof 1996
V l=0 = -2*Zval/r beyond r=  1.5227
V l=1 = -2*Zval/r beyond r=  1.5227
V l=2 = -2*Zval/r beyond r=  1.5227
V l=3 = -2*Zval/r beyond r=  1.5038
All V_l potentials equal beyond r=  1.5227
This should be close to max(r_c) in ps generation
All pots = -2*Zval/r beyond r=  1.5227

VLOCAL1: 99.0% of the norm of Vloc inside     18.722 Ry
VLOCAL1: 99.9% of the norm of Vloc inside     42.668 Ry
atom: Maximum radius for 4*pi*r*r*local-pseudopot. charge    1.83678
atom: Maximum radius for r*vlocal+2*Zval:    1.58088
GHOST: No ghost state for L =  0
GHOST: No ghost state for L =  1
GHOST: No ghost state for L =  2
GHOST: No ghost state for L =  3

KBgen: Kleinman-Bylander projectors: 
   l= 0   rc=  1.704034   el= -1.009801   Ekb=  5.335044   kbcos=  0.316824
   l= 1   rc=  1.704034   el= -0.388707   Ekb= -3.785862   kbcos= -0.366464
   l= 2   rc=  1.791422   el=  0.001971   Ekb= -0.970471   kbcos= -0.009212
   l= 3   rc=  1.859892   el=  0.003065   Ekb= -0.399525   kbcos= -0.001223

KBgen: Total number of  Kleinman-Bylander projectors:   16
atom: -------------------------------------------------------------------------

atom: SANKEY-TYPE ORBITALS:
atom: Selected multiple-zeta basis: split     

SPLIT: Orbitals with angular momentum L= 0

SPLIT: Basis orbitals for state 2s

SPLIT: PAO cut-off radius determined from an
SPLIT: energy shift=  0.007350 Ry

   izeta = 1
                 lambda =    1.000000
                     rc =    4.632753
                 energy =   -1.002270
                kinetic =    0.855760
    potential(screened) =   -1.858031
       potential(ionic) =   -5.417575

   izeta = 2
                 rmatch =    3.431921
              splitnorm =    0.150000
                 energy =   -0.867111
                kinetic =    1.300804
    potential(screened) =   -2.167915
       potential(ionic) =   -5.962684

SPLIT: Orbitals with angular momentum L= 1

SPLIT: Basis orbitals for state 2p

SPLIT: PAO cut-off radius determined from an
SPLIT: energy shift=  0.007350 Ry

   izeta = 1
                 lambda =    1.000000
                     rc =    5.658549
                 energy =   -0.381140
                kinetic =    2.399701
    potential(screened) =   -2.780841
       potential(ionic) =   -6.206085

   izeta = 2
                 rmatch =    3.653288
              splitnorm =    0.150000
                 energy =   -0.249149
                kinetic =    3.542762
    potential(screened) =   -3.791911
       potential(ionic) =   -7.581078

POLgen: Perturbative polarization orbital with L=  2

POLgen: Polarization orbital for state 2p

   izeta = 1
                     rc =    5.658549
                 energy =    1.109913
                kinetic =    2.304789
    potential(screened) =   -1.194876
       potential(ionic) =   -4.013592
atom: Total number of Sankey-type orbitals: 13

atm_pop: Valence configuration (for local Pseudopot. screening):
 2s( 2.00)                                                            
 2p( 2.00)                                                            
Vna: chval, zval:    4.00000   4.00000

Vna:  Cut-off radius for the neutral-atom potential:   5.658549
comcore: Pseudo-core radius Rcore=  1.791422

atom: _________________________________________________________________________

prinput: Basis input ----------------------------------------------------------

PAO.BasisType split     

%block ChemicalSpeciesLabel
    1    5 B                       # Species index, atomic number, species label
    2    6 C                       # Species index, atomic number, species label
%endblock ChemicalSpeciesLabel

%block PAO.Basis                 # Define Basis set
B                     2                    # Species label, number of l-shells
 n=2   0   2                         # n, l, Nzeta 
   5.422      4.223   
   1.000      1.000   
 n=2   1   2 P   1                   # n, l, Nzeta, Polarization, NzetaPol
   6.790      4.609   
   1.000      1.000   
C                     2                    # Species label, number of l-shells
 n=2   0   2                         # n, l, Nzeta 
   4.633      3.432   
   1.000      1.000   
 n=2   1   2 P   1                   # n, l, Nzeta, Polarization, NzetaPol
   5.659      3.653   
   1.000      1.000   
%endblock PAO.Basis

prinput: ----------------------------------------------------------------------

coor:   Atomic-coordinates input format  =     Fractional

siesta: Atomic coordinates (Bohr) and species
siesta:      2.30256  38.89134   0.00000  1        1
siesta:      4.63094  34.85847   0.00000  1        2
siesta:      4.63094  37.54693   0.00000  1        3
siesta:      6.95932  33.51406   0.00000  1        4
siesta:      4.63094  13.34970   0.00000  1        5
siesta:      6.95932  14.69411   0.00000  1        6
siesta:      6.95932  17.38257   0.00000  1        7
siesta:      9.28770  18.72698   0.00000  1        8
siesta:      2.30256  14.69411   0.00000  1        9
siesta:      2.30256  17.38257   0.00000  1       10
siesta:     -2.35420  17.38257   0.00000  1       11
siesta:     -0.02582  18.72698   0.00000  1       12
siesta:     -4.68258  18.72698   0.00000  1       13
siesta:     -4.68258  21.41544   0.00000  1       14
siesta:     -7.01096  22.75985   0.00000  1       15
siesta:     -7.01096  25.44831   0.00000  1       16
siesta:     -4.68258  26.79272   0.00000  1       17
siesta:     -4.68258  29.48119   0.00000  1       18
siesta:     -2.35420  30.82560   0.00000  1       19
siesta:     -2.35420  33.51406   0.00000  1       20
siesta:     -0.02582  34.85847   0.00000  1       21
siesta:     -0.02582  37.54693   0.00000  1       22
siesta:     -0.02582   2.59549   0.00000  2       23
siesta:     -0.02582   5.28395   0.00000  2       24
siesta:     -2.35420  38.89134   0.00000  2       25
siesta:     -2.35420  41.57980   0.00000  2       26
siesta:      2.30256  41.57980   0.00000  2       27
siesta:      6.95932  30.82560   0.00000  2       28
siesta:      9.28770  26.79272   0.00000  2       29
siesta:      9.28770  29.48119   0.00000  2       30
siesta:     -4.68258  34.85847   0.00000  2       31
siesta:     -4.68258  37.54693   0.00000  2       32
siesta:      2.30256   6.62836   0.00000  2       33
siesta:      2.30256   9.31683   0.00000  2       34
siesta:      4.63094  10.66124   0.00000  2       35
siesta:      9.28770  21.41544   0.00000  2       36
siesta:     11.61608  22.75985   0.00000  2       37
siesta:     11.61608  25.44831   0.00000  2       38
siesta:     -2.35420   6.62836   0.00000  2       39
siesta:     -2.35420   9.31683   0.00000  2       40
siesta:     -0.02582  10.66124   0.00000  2       41
siesta:     -0.02582  13.34970   0.00000  2       42
siesta:      4.63094  18.72698   0.00000  2       43
siesta:      4.63094  21.41544   0.00000  2       44
siesta:      6.95932  22.75985   0.00000  2       45
siesta:      6.95932  25.44831   0.00000  2       46
siesta:     -4.68258  10.66124   0.00000  2       47
siesta:     -4.68258  13.34970   0.00000  2       48
siesta:     -2.35420  14.69411   0.00000  2       49
siesta:     -0.02582  21.41544   0.00000  2       50
siesta:      2.30256  22.75985   0.00000  2       51
siesta:      2.30256  25.44831   0.00000  2       52
siesta:     -7.01096  14.69411   0.00000  2       53
siesta:     -7.01096  17.38257   0.00000  2       54
siesta:     -2.35420  22.75985   0.00000  2       55
siesta:     -2.35420  25.44831   0.00000  2       56
siesta:     -9.33934  18.72698   0.00000  2       57
siesta:     -9.33934  21.41544   0.00000  2       58
siesta:    -11.66772  22.75985   0.00000  2       59
siesta:    -11.66772  25.44831   0.00000  2       60
siesta:     -9.33934  26.79272   0.00000  2       61
siesta:     -9.33934  29.48119   0.00000  2       62
siesta:      4.63094  26.79272   0.00000  2       63
siesta:      4.63094  29.48119   0.00000  2       64
siesta:     -0.02582  26.79272   0.00000  2       65
siesta:     -0.02582  29.48119   0.00000  2       66
siesta:      2.30256  30.82560   0.00000  2       67
siesta:      2.30256  33.51406   0.00000  2       68
siesta:     -7.01096  30.82560   0.00000  2       69
siesta:     -7.01096  33.51406   0.00000  2       70
siesta:     -0.02582  42.92421   0.00000  2       71
siesta:     -0.02582  45.61267   0.00000  2       72

siesta: System type = slab      

initatomlists: Number of atoms, orbitals, and projectors:     72   936  1152

siesta: ******************** Simulation parameters ****************************
siesta:
siesta: The following are some of the parameters of the simulation.
siesta: A complete list of the parameters used, including default values,
siesta: can be found in file out.fdf
siesta:
redata: Non-Collinear-spin run           =     F
redata: SpinPolarized (Up/Down) run      =     F
redata: Number of spin components        =     1
redata: Long output                      =     F
redata: Number of Atomic Species         =        2
redata: Charge density info will appear in .RHO file
redata: Write Mulliken Pop.              =     NO
redata: Mesh Cutoff                      =   200.0000  Ry
redata: Net charge of the system         =     0.0000 |e|
redata: Max. number of SCF Iter          =      500
redata: SCF convergence failure will abort job
redata: Performing Pulay mixing using    =    10 iterations
redata: Mix DM in first SCF step ?       =     F
redata: Write Pulay info on disk?        =     F
redata: Discard 1st Pulay DM after  kick =     F
redata: New DM Mixing Weight             =     0.0500
redata: New DM Occupancy tolerance       = 0.000000000001
redata: No kicks to SCF
redata: DM Mixing Weight for Kicks       =     0.5000
redata: DM Tolerance for SCF             =     0.000100
redata: Require Energy convergence for SCF =     F
redata: DM Energy tolerance for SCF      =     0.000100 eV
redata: Require Harris convergence for SCF =     F
redata: DM Harris energy tolerance for SCF =     0.000100 eV
redata: Using Saved Data (generic)   =     F
redata: Use continuation files for DM    =     T
redata: Neglect nonoverlap interactions  =     F
redata: Method of Calculation            =     Diagonalization
redata: Divide and Conquer               =     T
redata: Electronic Temperature           =     0.0019  Ry
redata: Fix the spin of the system       =     F
redata: Dynamics option                  =     Verlet MD run
redata: Initial MD time step             =        1
redata:   Final MD time step             =        1
redata: Length of MD time step           =     1.0000  fs
redata: Initial Temperature of MD run    =     0.0000  K
redata: Perform a MD quench              =     F
redata: ***********************************************************************
Total number of electrons:   266.000000
Total ionic charge:   266.000000

* ProcessorY, Blocksize:    2  24

k-point displ. along   1 input, could be:     0.50    0.00
k-point displ. along   2 input, could be:     0.50    0.00
 Kpoints in:          231 . Kpoints trimmed:          231

siesta: k-grid: Number of k-points =   231
siesta: k-grid: Cutoff (effective) =     5.000 Ang
siesta: k-grid: Supercell and displacements
siesta: k-grid:   21   0   0      0.500
siesta: k-grid:    0  21   0      0.500
siesta: k-grid:    0   0   1      0.000
Naive supercell factors:     2    2    2

superc: Internal auxiliary supercell:     2 x     2 x     2  =       8
superc: Number of atoms, orbitals, and projectors:    576   7488   9216

* Maximum dynamic memory allocated =     4 MB

siesta:                 ==============================
                            Begin MD step =      1
                        ==============================

superc: Internal auxiliary supercell:     2 x     2 x     2  =       8
superc: Number of atoms, orbitals, and projectors:    576   7488   9216

outcell: Unit cell vectors (Ang):
       12.804619    7.392750    0.000000
        0.000000   14.785500    0.000000
        0.000000    0.000000   10.000000

outcell: Cell vector modules (Ang)   :   14.785500   14.785500   10.000000
outcell: Cell angles (23,13,12) (deg):     90.0000     90.0000     60.0000
outcell: Cell volume (Ang**3)        :   1893.2269
New_DM. Step:     1
Initializing Density Matrix...

InitMesh: MESH =   120 x   120 x    90 =     1296000
InitMesh: Mesh cutoff (required, used) =   200.000   223.865 Ry

* Maximum dynamic memory allocated =   230 MB

stepf: Fermi-Dirac step function

siesta: Program's energy decomposition (eV):
siesta: Ebs     =     -5501.443489
siesta: Eions   =     15585.763425
siesta: Ena     =      4190.211216
siesta: Ekin    =      5217.942150
siesta: Enl     =       829.828418
siesta: DEna    =        -0.000007
siesta: DUscf   =         0.000000
siesta: DUext   =         0.000000
siesta: Exc     =     -4198.465716
siesta: eta*DQ  =         0.000000
siesta: Emadel  =         0.000000
siesta: Emeta   =         0.000000
siesta: Emolmec =         0.000000
siesta: Ekinion =         0.000000
siesta: Eharris =     -9347.664274
siesta: Etot    =     -9546.247364
siesta: FreeEng =     -9546.247364

siesta: iscf   Eharris(eV)      E_KS(eV)   FreeEng(eV)   dDmax  Ef(eV)
siesta:    1    -9347.6643    -9546.2474    -9546.2474  7.2142 -8.4550
timer: Routine,Calls,Time,% = IterSCF        1    3483.046  99.66
elaps: Routine,Calls,Wall,% = IterSCF        1     436.346  99.66
siesta:    2   -15430.9731    -8404.7766    -8404.8501 18.6988 -5.8092
siesta:    3    -9393.4068    -9370.6436    -9370.7116  1.9274 -5.5531
siesta:    4    -9312.8653    -9302.6402    -9302.6711  1.3796 -5.4099
siesta:    5    -9220.4362    -9206.8652    -9206.9505  1.1664 -5.3620
siesta:    6    -9206.4913    -9187.0881    -9187.1168  1.1148 -5.1380
siesta:    7    -9195.8341    -9175.7529    -9175.7698  1.0205 -5.1007
siesta:    8    -9188.2180    -9162.7359    -9162.7699  0.7819 -5.1200
siesta:    9    -9187.2439    -9159.6026    -9159.6548  0.7559 -5.1348
siesta:   10    -9185.6090    -9159.7016    -9159.7489  0.3815 -5.2324
siesta:   11    -9185.4379    -9159.6634    -9159.7154  0.2556 -5.1936
siesta:   12    -9185.1002    -9160.6299    -9160.6754  0.9590 -5.1066
siesta:   13    -9185.0215    -9160.0255    -9160.0688  0.5546 -5.1709
siesta:   14    -9184.7473    -9161.1379    -9161.1842  0.2497 -5.1203
siesta:   15    -9184.3877    -9166.8956    -9166.9369  0.2316 -5.1066
siesta:   16    -9184.1872    -9168.1851    -9168.2269  0.2154 -5.1124
siesta:   17    -9183.8874    -9174.3350    -9174.3811  0.1503 -5.1389
siesta:   18    -9183.8128    -9177.2878    -9177.3393  0.1171 -5.1551
siesta:   19    -9183.6947    -9178.7791    -9178.8318  0.0996 -5.1662
siesta:   20    -9183.6343    -9179.9199    -9179.9684  0.0764 -5.1806
siesta:   21    -9183.6276    -9180.9463    -9180.9951  0.0696 -5.1797
siesta:   22    -9183.6165    -9181.4891    -9181.5364  0.0448 -5.1782
siesta:   23    -9183.6039    -9181.8105    -9181.8600  0.0383 -5.1716
siesta:   24    -9183.5980    -9182.6574    -9182.7083  0.0824 -5.1679
siesta:   25    -9183.5992    -9182.2824    -9182.3372  0.0187 -5.1716
siesta:   26    -9183.6010    -9182.9166    -9182.9672  0.0181 -5.1731
siesta:   27    -9183.5982    -9183.0054    -9183.0556  0.0128 -5.1756
siesta:   28    -9183.5962    -9183.0728    -9183.1234  0.0070 -5.1768
siesta:   29    -9183.5960    -9183.1917    -9183.2431  0.0047 -5.1777
siesta:   30    -9183.5953    -9183.3318    -9183.3831  0.0052 -5.1782
siesta:   31    -9183.5952    -9183.3753    -9183.4271  0.0047 -5.1784
siesta:   32    -9183.5956    -9183.3710    -9183.4228  0.0058 -5.1790
siesta:   33    -9183.5955    -9183.4730    -9183.5244  0.0059 -5.1790
siesta:   34    -9183.5954    -9183.5293    -9183.5807  0.0026 -5.1789
siesta:   35    -9183.5953    -9183.5576    -9183.6092  0.0013 -5.1788
siesta:   36    -9183.5954    -9183.5771    -9183.6287  0.0010 -5.1788
siesta:   37    -9183.5953    -9183.5956    -9183.6472  0.0004 -5.1788
siesta:   38    -9183.5953    -9183.5961    -9183.6477  0.0002 -5.1787
siesta:   39    -9183.5953    -9183.5935    -9183.6452  0.0002 -5.1787
siesta:   40    -9183.5953    -9183.5955    -9183.6471  0.0001 -5.1787
siesta:   41    -9183.5953    -9183.5939    -9183.6455  0.0001 -5.1786

siesta: E_KS(eV) =            -9183.5940

siesta: E_KS - E_eggbox =     -9183.5940

siesta: Atomic forces (eV/Ang):
----------------------------------------
   Tot    0.061801    0.031316    0.000000
----------------------------------------
   Max  559.409764
   Res  138.994126    sqrt( Sum f_i^2 / 3N )
----------------------------------------
   Max  559.409764    constrained

Stress-tensor-Voigt (kbar):     -738.53    -2547.25       -0.65      -19.18        0.00        0.00
(Free)E + p*V (eV/cell)    -7889.1790
Target enthalpy (eV/cell)    -9183.6457

siesta: Stress tensor (static) (eV/Ang**3):
        -0.460951   -0.011969    0.000000
        -0.011969   -1.589853    0.000000
         0.000000    0.000000   -0.000403

siesta: Pressure (static):       1095.47709505  kBar

siesta: Stress tensor (total) (eV/Ang**3):
        -0.460951   -0.011969    0.000000
        -0.011969   -1.589853    0.000000
         0.000000    0.000000   -0.000403

siesta: Pressure (total):       1095.47709505  kBar

siesta: Temp_ion =       0.000 K

* Maximum dynamic memory allocated =   247 MB
Computing bands...

siesta: Program's energy decomposition (eV):
siesta: Ebs     =     -4106.390886
siesta: Eions   =     15585.763425
siesta: Ena     =      4190.211216
siesta: Ekin    =      8034.117729
siesta: Enl     =      -795.821438
siesta: DEna    =      -765.162383
siesta: DUscf   =       103.573833
siesta: DUext   =         0.000000
siesta: Exc     =     -4364.749563
siesta: eta*DQ  =         0.000000
siesta: Emadel  =         0.000000
siesta: Emeta   =         0.000000
siesta: Emolmec =         0.000000
siesta: Ekinion =         0.000000
siesta: Eharris =     -9183.595328
siesta: Etot    =     -9183.594031
siesta: FreeEng =     -9183.645651

siesta: Final energy (eV):
siesta:  Band Struct. =   -4106.390886
siesta:       Kinetic =    8034.117729
siesta:       Hartree =   25833.766641
siesta:    Ext. field =       0.000000
siesta:   Exch.-corr. =   -4364.749563
siesta:  Ion-electron =  -59415.562992
siesta:       Ion-ion =   20728.834154
siesta:       Ekinion =       0.000000
siesta:         Total =   -9183.594031

siesta: Atomic forces (eV/Ang):
siesta:      1    1.478741  106.524661    0.000000
siesta:      2   17.810933    1.945583    0.000000
siesta:      3   18.566316 -393.975975    0.000000
siesta:      4    2.619211    0.458830    0.000000
siesta:      5   14.316882   -0.978281    0.000000
siesta:      6    3.967701   -2.981757    0.000000
siesta:      7   -0.395292   -2.200363    0.000000
siesta:      8    4.238337    2.514741    0.000000
siesta:      9   24.728371  405.866262    0.000000
siesta:     10   19.823644    0.956077    0.000000
siesta:     11  -16.486644   -3.025261    0.000000
siesta:     12    1.039686  413.434160    0.000000
siesta:     13   -3.244813   -3.147059    0.000000
siesta:     14    5.012278    3.355018    0.000000
siesta:     15   -3.409327   -3.059450    0.000000
siesta:     16   -2.833691    2.704216    0.000000
siesta:     17    3.751997   -2.894760    0.000000
siesta:     18   -1.170817    3.419008    0.000000
siesta:     19  -15.614636    2.055146    0.000000
siesta:     20  -17.688042 -396.283169    0.000000
siesta:     21   -2.716635  107.255827    0.000000
siesta:     22    5.082438 -387.561737    0.000000
siesta:     23    7.174669  549.061604    0.000000
siesta:     24   -8.840121 -132.020401    0.000000
siesta:     25    7.209870  116.617248    0.000000
siesta:     26  -17.606761 -555.818009    0.000000
siesta:     27   13.281820 -403.751764    0.000000
siesta:     28    3.205475   -2.756554    0.000000
siesta:     29    2.425358    1.865907    0.000000
siesta:     30   -0.763647    0.401352    0.000000
siesta:     31  -24.531208    0.688067    0.000000
siesta:     32  -31.392777 -549.528728    0.000000
siesta:     33   18.702336  548.749688    0.000000
siesta:     34    1.946807 -126.131123    0.000000
siesta:     35   27.616115  398.471159    0.000000
siesta:     36    3.311538    0.764915    0.000000
siesta:     37    0.191940    6.483045    0.000000
siesta:     38   -0.118398   -6.414804    0.000000
siesta:     39  -19.374545  402.900905    0.000000
siesta:     40    2.130627 -123.273843    0.000000
siesta:     41    5.978505  403.769966    0.000000
siesta:     42    5.786070 -118.249271    0.000000
siesta:     43   -2.039358    3.815656    0.000000
siesta:     44    0.238505    0.343836    0.000000
siesta:     45   -0.722683    0.936820    0.000000
siesta:     46   -0.448975   -0.801217    0.000000
siesta:     47  -36.508230  550.440989    0.000000
siesta:     48  -25.011736   -4.630981    0.000000
siesta:     49  -25.092116  558.556393    0.000000
siesta:     50   -0.230490    3.577898    0.000000
siesta:     51   -0.357589    0.238474    0.000000
siesta:     52   -0.226940    0.374129    0.000000
siesta:     53    2.186715   -1.330457    0.000000
siesta:     54   -6.399560   -2.964635    0.000000
siesta:     55    4.535849    0.387923    0.000000
siesta:     56    3.983392    0.000849    0.000000
siesta:     57    2.296265   -0.175193    0.000000
siesta:     58   -6.502451   -3.109038    0.000000
siesta:     59   -0.517251    5.257097    0.000000
siesta:     60   -0.407893   -5.746202    0.000000
siesta:     61   -6.123189    3.211741    0.000000
siesta:     62    1.958104    0.268873    0.000000
siesta:     63    0.626523    0.393754    0.000000
siesta:     64   -0.986837   -2.202745    0.000000
siesta:     65    0.306865   -2.113343    0.000000
siesta:     66   -6.452921 -559.409764    0.000000
siesta:     67   21.602698    7.910814    0.000000
siesta:     68   26.564936 -544.832726    0.000000
siesta:     69   -6.852511    2.418937    0.000000
siesta:     70    2.405000    1.378817    0.000000
siesta:     71    3.665420  125.931168    0.000000
siesta:     72   -0.638050 -404.307625    0.000000
siesta: ----------------------------------------
siesta:    Tot    0.061801    0.031316    0.000000

siesta: Stress tensor (static) (eV/Ang**3):
siesta:    -0.460951   -0.011969    0.000000
siesta:    -0.011969   -1.589853    0.000000
siesta:     0.000000    0.000000   -0.000403

siesta: Cell volume =       1893.226884 Ang**3

siesta: Pressure (static):
siesta:                Solid            Molecule  Units
siesta:           0.00744675          0.10580435  Ry/Bohr**3
siesta:           0.68373563          9.71459521  eV/Ang**3
siesta:        1095.47709505      15564.66569606  kBar
(Free)E+ p_basis*V_orbitals  =       -9145.957060
(Free)Eharris+ p_basis*V_orbitals  =       -9145.958481

siesta: Electric dipole (a.u.)  =    0.000000    0.000000    0.000000
siesta: Electric dipole (Debye) =    0.000000    0.000000    0.000000

* Maximum dynamic memory allocated : Node    0 =   247 MB
* Maximum dynamic memory allocated : Node    1 =    87 MB
* Maximum dynamic memory allocated : Node    2 =    91 MB
* Maximum dynamic memory allocated : Node    3 =   235 MB
* Maximum dynamic memory allocated : Node    4 =   225 MB
* Maximum dynamic memory allocated : Node    5 =    83 MB
* Maximum dynamic memory allocated : Node    6 =    85 MB
* Maximum dynamic memory allocated : Node    7 =   205 MB

* Maximum memory occured during matrixMtoO                    

timer: CPU execution times:
timer:  Routine       Calls   Time/call    Tot.time        %
timer:  siesta            1  139466.881  139466.881   100.00
timer:  Setup             1       3.780       3.780     0.00
timer:  bands             3     243.537     730.610     0.52
timer:  writewave         1       0.047       0.047     0.00
timer:  KSV_init          1       0.005       0.005     0.00
timer:  IterMD            1  138727.256  138727.256    99.47
timer:  hsparse           1       0.516       0.516     0.00
timer:  overlap           1       7.229       7.229     0.01
timer:  IterSCF          41    3378.275  138509.287    99.31
timer:  kinefsm           2       3.758       7.517     0.01
timer:  nlefsm            2      19.948      39.896     0.03
timer:  DHSCF            42     112.510    4725.420     3.39
timer:  DHSCF1            1       0.991       0.991     0.00
timer:  DHSCF2            1      43.426      43.426     0.03
timer:  REORD           338       0.005       1.658     0.00
timer:  POISON           43       0.873      37.542     0.03
timer:  DHSCF3           42     110.451    4638.945     3.33
timer:  rhoofd           42      24.020    1008.846     0.72
timer:  cellXC           42       3.270     137.334     0.10
timer:  vmat             42      52.297    2196.455     1.57
timer:  MolMec            2       0.000       0.000     0.00
timer:  diagon           41    3264.717  133853.392    95.98
timer:  c-eigval       9592       6.025   57790.351    41.44
timer:  c-buildHS      9592       0.053     504.394     0.36
timer:  cdiag         19063       6.149  117210.240    84.04
timer:  cdiag1        19063       0.385    7346.793     5.27
timer:  cdiag2        19063       1.769   33713.162    24.17
timer:  cdiag3        19063       3.728   71057.441    50.95
timer:  cdiag4        19063       0.154    2937.893     2.11
timer:  c-eigvec       9471       6.371   60339.420    43.26
timer:  c-buildD       9471       1.732   16406.249    11.76
timer:  DHSCF4            1      41.273      41.273     0.03
timer:  dfscf             1      38.461      38.461     0.03
timer:  overfsm           1       0.463       0.463     0.00
timer:  optical           1       4.602       4.602     0.00
  

elaps: ELAPSED times:
elaps:  Routine       Calls   Time/call    Tot.time        %
elaps:  siesta            1   17466.440   17466.440   100.00
elaps:  Setup             1       0.491       0.491     0.00
elaps:  bands             3      30.518      91.555     0.52
elaps:  writewave         1       0.006       0.006     0.00
elaps:  KSV_init          1       0.001       0.001     0.00
elaps:  IterMD            1   17373.789   17373.789    99.47
elaps:  hsparse           1       0.068       0.068     0.00
elaps:  overlap           1       0.900       0.900     0.01
elaps:  IterSCF          41     423.089   17346.633    99.31
elaps:  kinefsm           2       0.468       0.936     0.01
elaps:  nlefsm            2       2.473       4.946     0.03
elaps:  DHSCF            42      14.220     597.220     3.42
elaps:  DHSCF1            1       0.127       0.127     0.00
elaps:  DHSCF2            1       5.437       5.437     0.03
elaps:  REORD           338       0.001       0.226     0.00
elaps:  POISON           43       0.110       4.730     0.03
elaps:  DHSCF3           42      13.833     580.966     3.33
elaps:  rhoofd           42       6.741     283.127     1.62
elaps:  cellXC           42       0.409      17.178     0.10
elaps:  vmat             42       6.549     275.077     1.57
elaps:  MolMec            2       0.000       0.000     0.00
elaps:  diagon           41     408.855   16763.053    95.97
elaps:  c-eigval       9592       0.755    7237.261    41.44
elaps:  c-buildHS      9592       0.007      70.745     0.41
elaps:  cdiag         19063       0.769   14661.981    83.94
elaps:  cdiag1        19063       0.048     922.436     5.28
elaps:  cdiag2        19063       0.222    4222.992    24.18
elaps:  cdiag3        19063       0.467    8910.228    51.01
elaps:  cdiag4        19063       0.019     365.162     2.09
elaps:  c-eigvec       9471       0.797    7552.060    43.24
elaps:  c-buildD       9471       0.217    2058.314    11.78
elaps:  DHSCF4            1      10.590      10.590     0.06
elaps:  dfscf             1      10.013      10.013     0.06
elaps:  overfsm           1       0.055       0.055     0.00
elaps:  optical           1       0.001       0.001     0.00
  
>> End of run:  25-APR-2016   9:11:49
