Siesta Version:                                        siesta-3.2-pl-3
Architecture  : x86_64-unknown-linux-gnu--unknown
Compiler flags: mpiifort -g -O2 -fPIC -xSSE4.1 -fp-model source -shared-intel 
PARALLEL version

* Running on   12 nodes in parallel
>> Start of run:   4-MAY-2016  15:54:54

                           ***********************       
                           *  WELCOME TO SIESTA  *       
                           ***********************       

reinit: Reading from standard input
************************** Dump of input data file ****************************
#(1) General system descriptors
SystemName            GRP_doping    # Descriptive name of the system
SystemLabel           GRP_doping    # Short name for naming files
%include STRUCT.fdf
%include KPT.fdf
%include BASIS.fdf
#%include TS.fdf # for transiesta calculation
#(4) DFT, Grid, SCF
XC.functional         GGA           # LDA or GGA (default = LDA)
XC.authors            PBE           # CA (Ceperley-Aldr) = PZ
                                    #    (Perdew-Zunger) - LDA - Default
                                    # PW92 (Perdew-Wang-92) - LDA
                                    # PBE (Perdew-Burke-Ernzerhof) - GGA
MeshCutoff            200.000000    Ry      # Default: 50.0 Ry ~ 0.444 Bohr
                                    #         100.0 Ry ~ 0.314 Bohr
MaxSCFIterations      500           # Default: 50
DM.MixingWeight       0.05          # Default: 0.25
DM.NumberPulay        10            # Default: 0
DM.PulayOnFile        F             # SystemLabel.P1, SystemLabel.P2
DM.Tolerance          1.d-4         # Default: 1.d-4
DM.UseSaveDM          .true.        # because of the bug
SCFMustConverge       .true.
NeglNonOverlapInt     F             # Default: F
#(5) Eigenvalue problem: order-N or diagonalization
SolutionMethod        Diagon        # or Transiesta
ElectronicTemperature 300.0 K       # Default: 300.0 K
#(6) Molecular dynamics and relaxations
#MD.TypeOfRun          CG            # Type of dynamics:
#MD.VariableCell       F
#MD.NumCGsteps         0           # 0 for single-point / 100 for gopt
#MD.MaxCGDispl         0.2 Bohr      # Default: 0.2 Bohr
#MD.MaxForceTol        0.02 eV/Ang   # Default: 0.04 eV/Ang
#MD.MaxStressTol       1.0 GPa       # Default: 1.0 GPa
# Geometry Constraints
#%block GeometryConstraints
#	position from 1 to 44
#%endblock GeometryConstraints
BandLinesScale   pi/a
%block BandLines
 1   0.00000000  0.00000000  0.00000000
50   0.00000000  0.07809418  0.00000000
50   0.04509075  0.07809242  0.00000000
20   0.00000000  0.00000000  0.00000000
%endblock BandLines
************************** End of input data file *****************************

reinit: -----------------------------------------------------------------------
reinit: System Name: GRP_doping
reinit: -----------------------------------------------------------------------
reinit: System Label: GRP_doping                                                  
reinit: -----------------------------------------------------------------------

initatom: Reading input for the pseudopotentials and atomic orbitals ----------
 Species number:            1  Label: B Atomic number:           5
 Species number:            2  Label: C Atomic number:           6
Ground state valence configuration:   2s02  2p01
Reading pseudopotential information in formatted form from B.psf

Valence configuration for pseudopotential generation:
2s( 2.00) rc: 1.74
2p( 1.00) rc: 1.74
3d( 0.00) rc: 1.74
4f( 0.00) rc: 1.74
Ground state valence configuration:   2s02  2p02
Reading pseudopotential information in formatted form from C.psf

Valence configuration for pseudopotential generation:
2s( 2.00) rc: 1.54
2p( 2.00) rc: 1.54
3d( 0.00) rc: 1.54
4f( 0.00) rc: 1.54
For B, standard SIESTA heuristics set lmxkb to 3
 (one more than the basis l, including polarization orbitals).
Use PS.lmax or PS.KBprojectors blocks to override.
For C, standard SIESTA heuristics set lmxkb to 3
 (one more than the basis l, including polarization orbitals).
Use PS.lmax or PS.KBprojectors blocks to override.

<basis_specs>
===============================================================================
B                    Z=   5    Mass=  10.810        Charge= 0.17977+309
Lmxo=1 Lmxkb= 3    BasisType=split      Semic=F
L=0  Nsemic=0  Cnfigmx=2
          n=1  nzeta=2  polorb=0
            splnorm:   0.15000    
               vcte:    0.0000    
               rinn:    0.0000    
                rcs:    0.0000      0.0000    
            lambdas:    1.0000      1.0000    
L=1  Nsemic=0  Cnfigmx=2
          n=1  nzeta=2  polorb=1
            splnorm:   0.15000    
               vcte:    0.0000    
               rinn:    0.0000    
                rcs:    0.0000      0.0000    
            lambdas:    1.0000      1.0000    
-------------------------------------------------------------------------------
L=0  Nkbl=1  erefs: 0.17977+309
L=1  Nkbl=1  erefs: 0.17977+309
L=2  Nkbl=1  erefs: 0.17977+309
L=3  Nkbl=1  erefs: 0.17977+309
===============================================================================
</basis_specs>

atom: Called for B                     (Z =   5)

read_vps: Pseudopotential generation method:
read_vps: ATM3      Troullier-Martins                       
Total valence charge:    3.00000

read_vps: Pseudopotential includes a core correction:
read_vps: Pseudo-core for xc-correction

xc_check: Exchange-correlation functional:
xc_check: GGA Perdew, Burke & Ernzerhof 1996
V l=0 = -2*Zval/r beyond r=  1.7165
V l=1 = -2*Zval/r beyond r=  1.7165
V l=2 = -2*Zval/r beyond r=  1.7165
V l=3 = -2*Zval/r beyond r=  1.6951
All V_l potentials equal beyond r=  1.7165
This should be close to max(r_c) in ps generation
All pots = -2*Zval/r beyond r=  1.7165

VLOCAL1: 99.0% of the norm of Vloc inside     14.733 Ry
VLOCAL1: 99.9% of the norm of Vloc inside     33.577 Ry
atom: Maximum radius for 4*pi*r*r*local-pseudopot. charge    2.04484
atom: Maximum radius for r*vlocal+2*Zval:    1.75994
GHOST: No ghost state for L =  0
GHOST: No ghost state for L =  1
GHOST: No ghost state for L =  2
GHOST: No ghost state for L =  3

KBgen: Kleinman-Bylander projectors: 
   l= 0   rc=  1.897051   el= -0.693730   Ekb=  4.595746   kbcos=  0.286105
   l= 1   rc=  1.920920   el= -0.265236   Ekb= -2.350715   kbcos= -0.315747
   l= 2   rc=  2.044840   el=  0.002055   Ekb= -0.690767   kbcos= -0.013822
   l= 3   rc=  2.149707   el=  0.003188   Ekb= -0.315358   kbcos= -0.002055

KBgen: Total number of  Kleinman-Bylander projectors:   16
atom: -------------------------------------------------------------------------

atom: SANKEY-TYPE ORBITALS:
atom: Selected multiple-zeta basis: split     

SPLIT: Orbitals with angular momentum L= 0

SPLIT: Basis orbitals for state 2s

SPLIT: PAO cut-off radius determined from an
SPLIT: energy shift=  0.007350 Ry

   izeta = 1
                 lambda =    1.000000
                     rc =    5.422032
                 energy =   -0.686029
                kinetic =    0.576707
    potential(screened) =   -1.262736
       potential(ionic) =   -3.271094

   izeta = 2
                 rmatch =    4.222573
              splitnorm =    0.150000
                 energy =   -0.602132
                kinetic =    0.858975
    potential(screened) =   -1.461107
       potential(ionic) =   -3.582536

SPLIT: Orbitals with angular momentum L= 1

SPLIT: Basis orbitals for state 2p

SPLIT: PAO cut-off radius determined from an
SPLIT: energy shift=  0.007350 Ry

   izeta = 1
                 lambda =    1.000000
                     rc =    6.790259
                 energy =   -0.258578
                kinetic =    1.481412
    potential(screened) =   -1.739989
       potential(ionic) =   -3.657461

   izeta = 2
                 rmatch =    4.608740
              splitnorm =    0.150000
                 energy =   -0.173757
                kinetic =    2.186690
    potential(screened) =   -2.360447
       potential(ionic) =   -4.464260

POLgen: Perturbative polarization orbital with L=  2

POLgen: Polarization orbital for state 2p

   izeta = 1
                     rc =    6.790259
                 energy =    0.684082
                kinetic =    1.471481
    potential(screened) =   -0.787399
       potential(ionic) =   -2.406985
atom: Total number of Sankey-type orbitals: 13

atm_pop: Valence configuration (for local Pseudopot. screening):
 2s( 2.00)                                                            
 2p( 1.00)                                                            
Vna: chval, zval:    3.00000   3.00000

Vna:  Cut-off radius for the neutral-atom potential:   6.790259
comcore: Pseudo-core radius Rcore=  2.122997

atom: _________________________________________________________________________

<basis_specs>
===============================================================================
C                    Z=   6    Mass=  12.010        Charge= 0.17977+309
Lmxo=1 Lmxkb= 3    BasisType=split      Semic=F
L=0  Nsemic=0  Cnfigmx=2
          n=1  nzeta=2  polorb=0
            splnorm:   0.15000    
               vcte:    0.0000    
               rinn:    0.0000    
                rcs:    0.0000      0.0000    
            lambdas:    1.0000      1.0000    
L=1  Nsemic=0  Cnfigmx=2
          n=1  nzeta=2  polorb=1
            splnorm:   0.15000    
               vcte:    0.0000    
               rinn:    0.0000    
                rcs:    0.0000      0.0000    
            lambdas:    1.0000      1.0000    
-------------------------------------------------------------------------------
L=0  Nkbl=1  erefs: 0.17977+309
L=1  Nkbl=1  erefs: 0.17977+309
L=2  Nkbl=1  erefs: 0.17977+309
L=3  Nkbl=1  erefs: 0.17977+309
===============================================================================
</basis_specs>

atom: Called for C                     (Z =   6)

read_vps: Pseudopotential generation method:
read_vps: ATM3      Troullier-Martins                       
Total valence charge:    4.00000

read_vps: Pseudopotential includes a core correction:
read_vps: Pseudo-core for xc-correction

xc_check: Exchange-correlation functional:
xc_check: GGA Perdew, Burke & Ernzerhof 1996
V l=0 = -2*Zval/r beyond r=  1.5227
V l=1 = -2*Zval/r beyond r=  1.5227
V l=2 = -2*Zval/r beyond r=  1.5227
V l=3 = -2*Zval/r beyond r=  1.5038
All V_l potentials equal beyond r=  1.5227
This should be close to max(r_c) in ps generation
All pots = -2*Zval/r beyond r=  1.5227

VLOCAL1: 99.0% of the norm of Vloc inside     18.722 Ry
VLOCAL1: 99.9% of the norm of Vloc inside     42.668 Ry
atom: Maximum radius for 4*pi*r*r*local-pseudopot. charge    1.83678
atom: Maximum radius for r*vlocal+2*Zval:    1.58088
GHOST: No ghost state for L =  0
GHOST: No ghost state for L =  1
GHOST: No ghost state for L =  2
GHOST: No ghost state for L =  3

KBgen: Kleinman-Bylander projectors: 
   l= 0   rc=  1.704034   el= -1.009801   Ekb=  5.335044   kbcos=  0.316824
   l= 1   rc=  1.704034   el= -0.388707   Ekb= -3.785862   kbcos= -0.366464
   l= 2   rc=  1.791422   el=  0.001971   Ekb= -0.970471   kbcos= -0.009212
   l= 3   rc=  1.859892   el=  0.003065   Ekb= -0.399525   kbcos= -0.001223

KBgen: Total number of  Kleinman-Bylander projectors:   16
atom: -------------------------------------------------------------------------

atom: SANKEY-TYPE ORBITALS:
atom: Selected multiple-zeta basis: split     

SPLIT: Orbitals with angular momentum L= 0

SPLIT: Basis orbitals for state 2s

SPLIT: PAO cut-off radius determined from an
SPLIT: energy shift=  0.007350 Ry

   izeta = 1
                 lambda =    1.000000
                     rc =    4.632753
                 energy =   -1.002270
                kinetic =    0.855760
    potential(screened) =   -1.858031
       potential(ionic) =   -5.417575

   izeta = 2
                 rmatch =    3.431921
              splitnorm =    0.150000
                 energy =   -0.867111
                kinetic =    1.300804
    potential(screened) =   -2.167915
       potential(ionic) =   -5.962684

SPLIT: Orbitals with angular momentum L= 1

SPLIT: Basis orbitals for state 2p

SPLIT: PAO cut-off radius determined from an
SPLIT: energy shift=  0.007350 Ry

   izeta = 1
                 lambda =    1.000000
                     rc =    5.658549
                 energy =   -0.381140
                kinetic =    2.399701
    potential(screened) =   -2.780841
       potential(ionic) =   -6.206085

   izeta = 2
                 rmatch =    3.653288
              splitnorm =    0.150000
                 energy =   -0.249149
                kinetic =    3.542762
    potential(screened) =   -3.791911
       potential(ionic) =   -7.581078

POLgen: Perturbative polarization orbital with L=  2

POLgen: Polarization orbital for state 2p

   izeta = 1
                     rc =    5.658549
                 energy =    1.109913
                kinetic =    2.304789
    potential(screened) =   -1.194876
       potential(ionic) =   -4.013592
atom: Total number of Sankey-type orbitals: 13

atm_pop: Valence configuration (for local Pseudopot. screening):
 2s( 2.00)                                                            
 2p( 2.00)                                                            
Vna: chval, zval:    4.00000   4.00000

Vna:  Cut-off radius for the neutral-atom potential:   5.658549
comcore: Pseudo-core radius Rcore=  1.791422

atom: _________________________________________________________________________

prinput: Basis input ----------------------------------------------------------

PAO.BasisType split     

%block ChemicalSpeciesLabel
    1    5 B                       # Species index, atomic number, species label
    2    6 C                       # Species index, atomic number, species label
%endblock ChemicalSpeciesLabel

%block PAO.Basis                 # Define Basis set
B                     2                    # Species label, number of l-shells
 n=2   0   2                         # n, l, Nzeta 
   5.422      4.223   
   1.000      1.000   
 n=2   1   2 P   1                   # n, l, Nzeta, Polarization, NzetaPol
   6.790      4.609   
   1.000      1.000   
C                     2                    # Species label, number of l-shells
 n=2   0   2                         # n, l, Nzeta 
   4.633      3.432   
   1.000      1.000   
 n=2   1   2 P   1                   # n, l, Nzeta, Polarization, NzetaPol
   5.659      3.653   
   1.000      1.000   
%endblock PAO.Basis

prinput: ----------------------------------------------------------------------

coor:   Atomic-coordinates input format  =     Fractional

siesta: Atomic coordinates (Bohr) and species
siesta:     -0.02582   5.28395   0.00000  1        1
siesta:     -2.35420  38.89134   0.00000  1        2
siesta:      6.95932  30.82560   0.00000  1        3
siesta:      6.95932  17.38257   0.00000  1        4
siesta:     11.61608  22.75985   0.00000  1        5
siesta:     -0.02582  13.34970   0.00000  1        6
siesta:      2.30256  22.75985   0.00000  1        7
siesta:     -7.01096  22.75985   0.00000  1        8
siesta:      2.30256  33.51406   0.00000  1        9
siesta:     -2.35420  30.82560   0.00000  1       10
siesta:     -0.02582   2.59549   0.00000  2       11
siesta:     -2.35420  41.57980   0.00000  2       12
siesta:      2.30256  38.89134   0.00000  2       13
siesta:      2.30256  41.57980   0.00000  2       14
siesta:      4.63094  34.85847   0.00000  2       15
siesta:      4.63094  37.54693   0.00000  2       16
siesta:      6.95932  33.51406   0.00000  2       17
siesta:      9.28770  26.79272   0.00000  2       18
siesta:      9.28770  29.48119   0.00000  2       19
siesta:     -4.68258  34.85847   0.00000  2       20
siesta:     -4.68258  37.54693   0.00000  2       21
siesta:      2.30256   6.62836   0.00000  2       22
siesta:      2.30256   9.31683   0.00000  2       23
siesta:      4.63094  10.66124   0.00000  2       24
siesta:      4.63094  13.34970   0.00000  2       25
siesta:      6.95932  14.69411   0.00000  2       26
siesta:      9.28770  18.72698   0.00000  2       27
siesta:      9.28770  21.41544   0.00000  2       28
siesta:     11.61608  25.44831   0.00000  2       29
siesta:     -2.35420   6.62836   0.00000  2       30
siesta:     -2.35420   9.31683   0.00000  2       31
siesta:     -0.02582  10.66124   0.00000  2       32
siesta:      2.30256  14.69411   0.00000  2       33
siesta:      2.30256  17.38257   0.00000  2       34
siesta:      4.63094  18.72698   0.00000  2       35
siesta:      4.63094  21.41544   0.00000  2       36
siesta:      6.95932  22.75985   0.00000  2       37
siesta:      6.95932  25.44831   0.00000  2       38
siesta:     -4.68258  10.66124   0.00000  2       39
siesta:     -4.68258  13.34970   0.00000  2       40
siesta:     -2.35420  14.69411   0.00000  2       41
siesta:     -2.35420  17.38257   0.00000  2       42
siesta:     -0.02582  18.72698   0.00000  2       43
siesta:     -0.02582  21.41544   0.00000  2       44
siesta:      2.30256  25.44831   0.00000  2       45
siesta:     -7.01096  14.69411   0.00000  2       46
siesta:     -7.01096  17.38257   0.00000  2       47
siesta:     -4.68258  18.72698   0.00000  2       48
siesta:     -4.68258  21.41544   0.00000  2       49
siesta:     -2.35420  22.75985   0.00000  2       50
siesta:     -2.35420  25.44831   0.00000  2       51
siesta:     -9.33934  18.72698   0.00000  2       52
siesta:     -9.33934  21.41544   0.00000  2       53
siesta:     -7.01096  25.44831   0.00000  2       54
siesta:    -11.66772  22.75985   0.00000  2       55
siesta:    -11.66772  25.44831   0.00000  2       56
siesta:     -9.33934  26.79272   0.00000  2       57
siesta:     -9.33934  29.48119   0.00000  2       58
siesta:      4.63094  26.79272   0.00000  2       59
siesta:      4.63094  29.48119   0.00000  2       60
siesta:     -0.02582  26.79272   0.00000  2       61
siesta:     -0.02582  29.48119   0.00000  2       62
siesta:     -4.68258  26.79272   0.00000  2       63
siesta:     -4.68258  29.48119   0.00000  2       64
siesta:      2.30256  30.82560   0.00000  2       65
siesta:     -2.35420  33.51406   0.00000  2       66
siesta:     -7.01096  30.82560   0.00000  2       67
siesta:     -7.01096  33.51406   0.00000  2       68
siesta:     -0.02582  34.85847   0.00000  2       69
siesta:     -0.02582  37.54693   0.00000  2       70
siesta:     -0.02582  42.92421   0.00000  2       71
siesta:     -0.02582  45.61267   0.00000  2       72

siesta: System type = slab      

initatomlists: Number of atoms, orbitals, and projectors:     72   936  1152

siesta: ******************** Simulation parameters ****************************
siesta:
siesta: The following are some of the parameters of the simulation.
siesta: A complete list of the parameters used, including default values,
siesta: can be found in file out.fdf
siesta:
redata: Non-Collinear-spin run           =     F
redata: SpinPolarized (Up/Down) run      =     F
redata: Number of spin components        =     1
redata: Long output                      =     F
redata: Number of Atomic Species         =        2
redata: Charge density info will appear in .RHO file
redata: Write Mulliken Pop.              =     NO
redata: Mesh Cutoff                      =   200.0000  Ry
redata: Net charge of the system         =     0.0000 |e|
redata: Max. number of SCF Iter          =      500
redata: SCF convergence failure will abort job
redata: Performing Pulay mixing using    =    10 iterations
redata: Mix DM in first SCF step ?       =     F
redata: Write Pulay info on disk?        =     F
redata: Discard 1st Pulay DM after  kick =     F
redata: New DM Mixing Weight             =     0.0500
redata: New DM Occupancy tolerance       = 0.000000000001
redata: No kicks to SCF
redata: DM Mixing Weight for Kicks       =     0.5000
redata: DM Tolerance for SCF             =     0.000100
redata: Require Energy convergence for SCF =     F
redata: DM Energy tolerance for SCF      =     0.000100 eV
redata: Require Harris convergence for SCF =     F
redata: DM Harris energy tolerance for SCF =     0.000100 eV
redata: Using Saved Data (generic)   =     F
redata: Use continuation files for DM    =     T
redata: Neglect nonoverlap interactions  =     F
redata: Method of Calculation            =     Diagonalization
redata: Divide and Conquer               =     T
redata: Electronic Temperature           =     0.0019  Ry
redata: Fix the spin of the system       =     F
redata: Dynamics option                  =     Verlet MD run
redata: Initial MD time step             =        1
redata:   Final MD time step             =        1
redata: Length of MD time step           =     1.0000  fs
redata: Initial Temperature of MD run    =     0.0000  K
redata: Perform a MD quench              =     F
redata: ***********************************************************************
Total number of electrons:   278.000000
Total ionic charge:   278.000000

* ProcessorY, Blocksize:    3  24

k-point displ. along   1 input, could be:     0.50    0.00
k-point displ. along   2 input, could be:     0.50    0.00
 Kpoints in:          231 . Kpoints trimmed:          231

siesta: k-grid: Number of k-points =   231
siesta: k-grid: Cutoff (effective) =     5.000 Ang
siesta: k-grid: Supercell and displacements
siesta: k-grid:   21   0   0      0.500
siesta: k-grid:    0  21   0      0.500
siesta: k-grid:    0   0   1      0.000
Naive supercell factors:     2    2    2

superc: Internal auxiliary supercell:     2 x     2 x     2  =       8
superc: Number of atoms, orbitals, and projectors:    576   7488   9216

* Maximum dynamic memory allocated =     4 MB

siesta:                 ==============================
                            Begin MD step =      1
                        ==============================

superc: Internal auxiliary supercell:     2 x     2 x     2  =       8
superc: Number of atoms, orbitals, and projectors:    576   7488   9216

outcell: Unit cell vectors (Ang):
       12.804619    7.392750    0.000000
        0.000000   14.785500    0.000000
        0.000000    0.000000   10.000000

outcell: Cell vector modules (Ang)   :   14.785500   14.785500   10.000000
outcell: Cell angles (23,13,12) (deg):     90.0000     90.0000     60.0000
outcell: Cell volume (Ang**3)        :   1893.2269
New_DM. Step:     1
Initializing Density Matrix...

InitMesh: MESH =   120 x   120 x    90 =     1296000
InitMesh: Mesh cutoff (required, used) =   200.000   223.865 Ry

* Maximum dynamic memory allocated =   152 MB

stepf: Fermi-Dirac step function

siesta: Program's energy decomposition (eV):
siesta: Ebs     =     -5732.564550
siesta: Eions   =     17122.443959
siesta: Ena     =      4495.519035
siesta: Ekin    =      5850.796185
siesta: Enl     =       724.074568
siesta: DEna    =        -0.000012
siesta: DUscf   =         0.000000
siesta: DUext   =         0.000000
siesta: Exc     =     -4179.464791
siesta: eta*DQ  =         0.000000
siesta: Emadel  =         0.000000
siesta: Emeta   =         0.000000
siesta: Emolmec =         0.000000
siesta: Ekinion =         0.000000
siesta: Eharris =     -9985.084002
siesta: Etot    =    -10231.518972
siesta: FreeEng =    -10231.518972

siesta: iscf   Eharris(eV)      E_KS(eV)   FreeEng(eV)   dDmax  Ef(eV)
siesta:    1    -9985.0840   -10231.5190   -10231.5190  7.3918 -7.9744
timer: Routine,Calls,Time,% = IterSCF        1    5401.897  99.75
elaps: Routine,Calls,Wall,% = IterSCF        1     470.888  99.75
siesta:    2   -14262.0856    -9280.1343    -9280.1997 10.9054 -3.8723
siesta:    3   -10016.2312   -10031.3595   -10031.3936  1.6359 -4.9250
siesta:    4    -9934.8336    -9968.0009    -9968.0082  1.5901 -4.8827
siesta:    5    -9856.9180    -9909.1371    -9909.1925  1.3770 -5.1350
siesta:    6    -9842.3679    -9878.3684    -9878.3890  1.2499 -4.9089
siesta:    7    -9838.7580    -9865.4258    -9865.5034  1.1875 -4.9018
siesta:    8    -9833.7938    -9855.2168    -9855.2666  0.9918 -4.8601
siesta:    9    -9832.9086    -9848.7193    -9848.7732  0.8582 -4.9145
siesta:   10    -9832.1649    -9843.1162    -9843.1584  0.9352 -4.7506
siesta:   11    -9832.6357    -9825.0272    -9825.1115  0.5140 -4.5994
siesta:   12    -9831.0511    -9821.1162    -9821.1530  0.2925 -4.6745
siesta:   13    -9830.9058    -9818.4205    -9818.4770  0.2194 -4.7066
siesta:   14    -9830.1665    -9820.3031    -9820.3428  0.1850 -4.7543
siesta:   15    -9829.9850    -9822.3022    -9822.3551  0.1487 -4.7754
siesta:   16    -9829.6765    -9824.4767    -9824.5219  0.1333 -4.8311
siesta:   17    -9829.6639    -9825.8244    -9825.8816  0.0790 -4.8379
siesta:   18    -9829.6012    -9825.4918    -9825.5478  0.0861 -4.8395
siesta:   19    -9829.4977    -9826.7188    -9826.7687  0.0483 -4.8338
siesta:   20    -9829.4269    -9828.5056    -9828.5589  0.0417 -4.8301
siesta:   21    -9829.4142    -9829.1653    -9829.2218  0.0479 -4.8324
siesta:   22    -9829.4041    -9829.5610    -9829.6167  0.0389 -4.8213
siesta:   23    -9829.4046    -9829.5101    -9829.5669  0.0213 -4.8184
siesta:   24    -9829.4023    -9829.4921    -9829.5477  0.0137 -4.8208
siesta:   25    -9829.4002    -9829.4709    -9829.5256  0.0085 -4.8191
siesta:   26    -9829.3990    -9829.5301    -9829.5854  0.0053 -4.8179
siesta:   27    -9829.3981    -9829.6673    -9829.7231  0.0037 -4.8168
siesta:   28    -9829.3979    -9829.7330    -9829.7893  0.0037 -4.8172
siesta:   29    -9829.3982    -9829.6465    -9829.7028  0.0024 -4.8185
siesta:   30    -9829.3981    -9829.5498    -9829.6058  0.0018 -4.8185
siesta:   31    -9829.3981    -9829.4933    -9829.5494  0.0014 -4.8186
siesta:   32    -9829.3979    -9829.4683    -9829.5243  0.0010 -4.8182
siesta:   33    -9829.3979    -9829.4505    -9829.5067  0.0008 -4.8180
siesta:   34    -9829.3979    -9829.4302    -9829.4864  0.0006 -4.8179
siesta:   35    -9829.3979    -9829.4101    -9829.4662  0.0004 -4.8178
siesta:   36    -9829.3979    -9829.4018    -9829.4579  0.0003 -4.8178
siesta:   37    -9829.3979    -9829.4012    -9829.4574  0.0002 -4.8179
siesta:   38    -9829.3979    -9829.4011    -9829.4573  0.0001 -4.8179

siesta: E_KS(eV) =            -9829.4002

siesta: E_KS - E_eggbox =     -9829.4002

siesta: Atomic forces (eV/Ang):
----------------------------------------
   Tot   -0.166199   -0.037289    0.000000
----------------------------------------
   Max  565.614492
   Res  157.051692    sqrt( Sum f_i^2 / 3N )
----------------------------------------
   Max  565.614492    constrained

Stress-tensor-Voigt (kbar):     -736.39    -2762.20       -0.38       -4.61        0.00        0.00
(Free)E + p*V (eV/cell)    -8451.2762
Target enthalpy (eV/cell)    -9829.4564

siesta: Stress tensor (static) (eV/Ang**3):
        -0.459613   -0.002875    0.000000
        -0.002875   -1.724010    0.000000
         0.000000    0.000000   -0.000236

siesta: Pressure (static):       1166.32188723  kBar

siesta: Stress tensor (total) (eV/Ang**3):
        -0.459613   -0.002875    0.000000
        -0.002875   -1.724010    0.000000
         0.000000    0.000000   -0.000236

siesta: Pressure (total):       1166.32188723  kBar

siesta: Temp_ion =       0.000 K

* Maximum dynamic memory allocated =   165 MB
Computing bands...

siesta: Program's energy decomposition (eV):
siesta: Ebs     =     -4378.460749
siesta: Eions   =     17122.443959
siesta: Ena     =      4495.519035
siesta: Ekin    =      8759.978282
siesta: Enl     =      -922.651118
siesta: DEna    =      -795.842874
siesta: DUscf   =       108.485632
siesta: DUext   =         0.000000
siesta: Exc     =     -4352.445192
siesta: eta*DQ  =         0.000000
siesta: Emadel  =         0.000000
siesta: Emeta   =         0.000000
siesta: Emolmec =         0.000000
siesta: Ekinion =         0.000000
siesta: Eharris =     -9829.397934
siesta: Etot    =     -9829.400194
siesta: FreeEng =     -9829.456352

siesta: Final energy (eV):
siesta:  Band Struct. =   -4378.460749
siesta:       Kinetic =    8759.978282
siesta:       Hartree =   28394.067686
siesta:    Ext. field =       0.000000
siesta:   Exch.-corr. =   -4352.445192
siesta:  Ion-electron =  -65245.564233
siesta:       Ion-ion =   22614.563263
siesta:       Ekinion =       0.000000
siesta:         Total =   -9829.400194

siesta: Atomic forces (eV/Ang):
siesta:      1   -3.553828 -117.158208    0.000000
siesta:      2    0.702154  113.121477    0.000000
siesta:      3    2.865161    1.180738    0.000000
siesta:      4    2.944109   -1.606085    0.000000
siesta:      5    2.259168    1.962626    0.000000
siesta:      6    0.342733 -115.482036    0.000000
siesta:      7   -0.482987   -0.641684    0.000000
siesta:      8    0.585581    0.208347    0.000000
siesta:      9   26.806347 -399.244001    0.000000
siesta:     10  -17.868608    4.282041    0.000000
siesta:     11    0.728946  548.900632    0.000000
siesta:     12  -20.220728 -550.179048    0.000000
siesta:     13   -3.022280  128.749752    0.000000
siesta:     14   24.667969 -551.040618    0.000000
siesta:     15   25.468904   -1.000523    0.000000
siesta:     16   28.873977 -549.152832    0.000000
siesta:     17   -3.254442    6.197370    0.000000
siesta:     18    3.705897    0.946891    0.000000
siesta:     19    1.119101   -2.277411    0.000000
siesta:     20  -25.607591    2.770251    0.000000
siesta:     21  -26.230886 -541.220905    0.000000
siesta:     22   12.053366  396.726683    0.000000
siesta:     23    0.556177 -123.266954    0.000000
siesta:     24   34.955271  549.829987    0.000000
siesta:     25   27.232499   -4.704722    0.000000
siesta:     26   -3.752069   -5.602682    0.000000
siesta:     27    1.335043    3.536982    0.000000
siesta:     28    0.257871   -3.998865    0.000000
siesta:     29   -0.086311    0.305303    0.000000
siesta:     30  -11.876565  552.751053    0.000000
siesta:     31   -0.179867 -130.445832    0.000000
siesta:     32    6.813064  547.876379    0.000000
siesta:     33   16.691407  551.059819    0.000000
siesta:     34   21.952287   -5.795058    0.000000
siesta:     35   -2.765197    2.919391    0.000000
siesta:     36    3.168393   -1.176081    0.000000
siesta:     37   -0.827015   -0.431820    0.000000
siesta:     38   -1.360525   -0.074916    0.000000
siesta:     39  -39.044877  547.621725    0.000000
siesta:     40  -24.545235   -5.396634    0.000000
siesta:     41  -18.869382  559.348433    0.000000
siesta:     42  -21.860452   -6.454142    0.000000
siesta:     43   -1.180499  560.187998    0.000000
siesta:     44   -2.887501   -0.184899    0.000000
siesta:     45   -1.035084    3.952661    0.000000
siesta:     46    2.603000   -2.035352    0.000000
siesta:     47   -1.759018   -0.672575    0.000000
siesta:     48    0.900873    2.558504    0.000000
siesta:     49    1.913965   -2.250105    0.000000
siesta:     50    1.228991   -1.423717    0.000000
siesta:     51    0.876545    0.638992    0.000000
siesta:     52    0.806627   -0.058837    0.000000
siesta:     53   -6.144147   -4.277286    0.000000
siesta:     54    0.923712    2.804864    0.000000
siesta:     55    0.795520    7.124250    0.000000
siesta:     56    0.310979   -6.580946    0.000000
siesta:     57   -2.525993    1.749122    0.000000
siesta:     58    0.839236    1.230450    0.000000
siesta:     59    0.398752   -0.298746    0.000000
siesta:     60   -3.344650   -3.079547    0.000000
siesta:     61    0.612057   -1.689764    0.000000
siesta:     62   -0.459757 -565.614492    0.000000
siesta:     63   -1.331906   -0.256943    0.000000
siesta:     64    0.039387   -1.695478    0.000000
siesta:     65   20.130484    5.617452    0.000000
siesta:     66  -32.707855 -557.216099    0.000000
siesta:     67   -2.285550   -0.160808    0.000000
siesta:     68    1.473013    2.280240    0.000000
siesta:     69    9.703469  122.968425    0.000000
siesta:     70   -5.230247 -550.326559    0.000000
siesta:     71   -3.942937  132.852658    0.000000
siesta:     72    0.435758 -550.125580    0.000000
siesta: ----------------------------------------
siesta:    Tot   -0.166199   -0.037289    0.000000

siesta: Stress tensor (static) (eV/Ang**3):
siesta:    -0.459613   -0.002875    0.000000
siesta:    -0.002875   -1.724010    0.000000
siesta:     0.000000    0.000000   -0.000236

siesta: Cell volume =       1893.226884 Ang**3

siesta: Pressure (static):
siesta:                Solid            Molecule  Units
siesta:           0.00792834          0.12202273  Ry/Bohr**3
siesta:           0.72795300         11.20371215  eV/Ang**3
siesta:        1166.32188723      17950.51983805  kBar
(Free)E+ p_basis*V_orbitals  =       -9795.559200
(Free)Eharris+ p_basis*V_orbitals  =       -9795.556047

siesta: Electric dipole (a.u.)  =    0.000000    0.000000    0.000000
siesta: Electric dipole (Debye) =    0.000000    0.000000    0.000000

* Maximum dynamic memory allocated : Node    0 =   165 MB
* Maximum dynamic memory allocated : Node    1 =    66 MB
* Maximum dynamic memory allocated : Node    2 =    67 MB
* Maximum dynamic memory allocated : Node    3 =   151 MB
* Maximum dynamic memory allocated : Node    4 =   161 MB
* Maximum dynamic memory allocated : Node    5 =    60 MB
* Maximum dynamic memory allocated : Node    6 =    61 MB
* Maximum dynamic memory allocated : Node    7 =   152 MB
* Maximum dynamic memory allocated : Node    8 =   145 MB
* Maximum dynamic memory allocated : Node    9 =    58 MB
* Maximum dynamic memory allocated : Node   10 =    60 MB
* Maximum dynamic memory allocated : Node   11 =   139 MB

* Maximum memory occured during matrixMtoO                    

timer: CPU execution times:
timer:  Routine       Calls   Time/call    Tot.time        %
timer:  siesta            1  200917.827  200917.827   100.00
timer:  Setup             1       3.211       3.211     0.00
timer:  bands             3     417.513    1252.540     0.62
timer:  writewave         1       0.066       0.066     0.00
timer:  KSV_init          1       0.000       0.000     0.00
timer:  IterMD            1  199655.440  199655.440    99.37
timer:  hsparse           1       0.282       0.282     0.00
timer:  overlap           1       6.382       6.382     0.00
timer:  IterSCF          38    5250.240  199509.129    99.30
timer:  kinefsm           2       3.256       6.512     0.00
timer:  nlefsm            2      19.863      39.725     0.02
timer:  DHSCF            39      79.219    3089.531     1.54
timer:  DHSCF1            1       1.188       1.188     0.00
timer:  DHSCF2            1      37.030      37.030     0.02
timer:  REORD           314       0.002       0.778     0.00
timer:  POISON           40       0.605      24.183     0.01
timer:  DHSCF3           39      77.562    3024.936     1.51
timer:  rhoofd           39      16.186     631.246     0.31
timer:  cellXC           39       2.857     111.418     0.06
timer:  vmat             39      36.886    1438.538     0.72
timer:  MolMec            2       0.001       0.002     0.00
timer:  diagon           38    5168.996  196421.835    97.76
timer:  c-eigval       8899      10.364   92225.536    45.90
timer:  c-buildHS      8899       0.034     306.972     0.15
timer:  cdiag         17677      10.586  187131.716    93.14
timer:  cdiag1        17677       0.481    8495.741     4.23
timer:  cdiag2        17677       3.379   59728.112    29.73
timer:  cdiag3        17677       6.323  111777.680    55.63
timer:  cdiag4        17677       0.163    2880.709     1.43
timer:  c-eigvec       8778      10.876   95471.244    47.52
timer:  c-buildD       8778       1.131    9929.403     4.94
timer:  DHSCF4            1      26.125      26.125     0.01
timer:  dfscf             1      24.059      24.059     0.01
timer:  overfsm           1       0.311       0.311     0.00
timer:  optical           1       6.024       6.024     0.00
  

elaps: ELAPSED times:
elaps:  Routine       Calls   Time/call    Tot.time        %
elaps:  siesta            1   17511.992   17511.992   100.00
elaps:  Setup             1       0.278       0.278     0.00
elaps:  bands             3      36.406     109.219     0.62
elaps:  writewave         1       0.002       0.002     0.00
elaps:  KSV_init          1       0.000       0.000     0.00
elaps:  IterMD            1   17401.960   17401.960    99.37
elaps:  hsparse           1       0.028       0.028     0.00
elaps:  overlap           1       0.803       0.803     0.00
elaps:  IterSCF          38     457.612   17389.264    99.30
elaps:  kinefsm           2       0.378       0.756     0.00
elaps:  nlefsm            2       1.806       3.612     0.02
elaps:  DHSCF            39       6.956     271.269     1.55
elaps:  DHSCF1            1       0.101       0.101     0.00
elaps:  DHSCF2            1       3.233       3.233     0.02
elaps:  REORD           314       0.000       0.089     0.00
elaps:  POISON           40       0.052       2.086     0.01
elaps:  DHSCF3           39       6.760     263.649     1.51
elaps:  rhoofd           39       2.815     109.784     0.63
elaps:  cellXC           39       0.249       9.700     0.06
elaps:  vmat             39       3.215     125.401     0.72
elaps:  MolMec            2       0.000       0.000     0.00
elaps:  diagon           38     450.542   17120.584    97.76
elaps:  c-eigval       8899       0.903    8038.401    45.90
elaps:  c-buildHS      8899       0.004      33.043     0.19
elaps:  cdiag         17677       0.915   16172.237    92.35
elaps:  cdiag1        17677       0.042     734.243     4.19
elaps:  cdiag2        17677       0.295    5210.619    29.75
elaps:  cdiag3        17677       0.552    9754.145    55.70
elaps:  cdiag4        17677       0.014     240.368     1.37
elaps:  c-eigvec       8778       0.934    8195.910    46.80
elaps:  c-buildD       8778       0.113     990.664     5.66
elaps:  DHSCF4            1       4.245       4.245     0.02
elaps:  dfscf             1       3.991       3.991     0.02
elaps:  overfsm           1       0.042       0.042     0.00
elaps:  optical           1       0.000       0.000     0.00
  
>> End of run:   4-MAY-2016  20:46:46
