Siesta Version:                                        siesta-3.2-pl-3
Architecture  : x86_64-unknown-linux-gnu--unknown
Compiler flags: mpiifort -g -O2 -fPIC -xSSE4.1 -fp-model source -shared-intel 
PARALLEL version

* Running on   12 nodes in parallel
>> Start of run:   3-MAY-2016  20:43:03

                           ***********************       
                           *  WELCOME TO SIESTA  *       
                           ***********************       

reinit: Reading from standard input
************************** Dump of input data file ****************************
#(1) General system descriptors
SystemName            GRP_doping    # Descriptive name of the system
SystemLabel           GRP_doping    # Short name for naming files
%include STRUCT.fdf
%include KPT.fdf
%include BASIS.fdf
#%include TS.fdf # for transiesta calculation
#(4) DFT, Grid, SCF
XC.functional         GGA           # LDA or GGA (default = LDA)
XC.authors            PBE           # CA (Ceperley-Aldr) = PZ
                                    #    (Perdew-Zunger) - LDA - Default
                                    # PW92 (Perdew-Wang-92) - LDA
                                    # PBE (Perdew-Burke-Ernzerhof) - GGA
MeshCutoff            200.000000    Ry      # Default: 50.0 Ry ~ 0.444 Bohr
                                    #         100.0 Ry ~ 0.314 Bohr
MaxSCFIterations      500           # Default: 50
DM.MixingWeight       0.05          # Default: 0.25
DM.NumberPulay        10            # Default: 0
DM.PulayOnFile        F             # SystemLabel.P1, SystemLabel.P2
DM.Tolerance          1.d-4         # Default: 1.d-4
DM.UseSaveDM          .true.        # because of the bug
SCFMustConverge       .true.
NeglNonOverlapInt     F             # Default: F
#(5) Eigenvalue problem: order-N or diagonalization
SolutionMethod        Diagon        # or Transiesta
ElectronicTemperature 300.0 K       # Default: 300.0 K
#(6) Molecular dynamics and relaxations
#MD.TypeOfRun          CG            # Type of dynamics:
#MD.VariableCell       F
#MD.NumCGsteps         0           # 0 for single-point / 100 for gopt
#MD.MaxCGDispl         0.2 Bohr      # Default: 0.2 Bohr
#MD.MaxForceTol        0.02 eV/Ang   # Default: 0.04 eV/Ang
#MD.MaxStressTol       1.0 GPa       # Default: 1.0 GPa
# Geometry Constraints
#%block GeometryConstraints
#	position from 1 to 44
#%endblock GeometryConstraints
BandLinesScale   pi/a
%block BandLines
 1   0.00000000  0.00000000  0.00000000
50   0.00000000  0.07809418  0.00000000
50   0.04509075  0.07809242  0.00000000
20   0.00000000  0.00000000  0.00000000
%endblock BandLines
************************** End of input data file *****************************

reinit: -----------------------------------------------------------------------
reinit: System Name: GRP_doping
reinit: -----------------------------------------------------------------------
reinit: System Label: GRP_doping                                                  
reinit: -----------------------------------------------------------------------

initatom: Reading input for the pseudopotentials and atomic orbitals ----------
 Species number:            1  Label: B Atomic number:           5
 Species number:            2  Label: C Atomic number:           6
Ground state valence configuration:   2s02  2p01
Reading pseudopotential information in formatted form from B.psf

Valence configuration for pseudopotential generation:
2s( 2.00) rc: 1.74
2p( 1.00) rc: 1.74
3d( 0.00) rc: 1.74
4f( 0.00) rc: 1.74
Ground state valence configuration:   2s02  2p02
Reading pseudopotential information in formatted form from C.psf

Valence configuration for pseudopotential generation:
2s( 2.00) rc: 1.54
2p( 2.00) rc: 1.54
3d( 0.00) rc: 1.54
4f( 0.00) rc: 1.54
For B, standard SIESTA heuristics set lmxkb to 3
 (one more than the basis l, including polarization orbitals).
Use PS.lmax or PS.KBprojectors blocks to override.
For C, standard SIESTA heuristics set lmxkb to 3
 (one more than the basis l, including polarization orbitals).
Use PS.lmax or PS.KBprojectors blocks to override.

<basis_specs>
===============================================================================
B                    Z=   5    Mass=  10.810        Charge= 0.17977+309
Lmxo=1 Lmxkb= 3    BasisType=split      Semic=F
L=0  Nsemic=0  Cnfigmx=2
          n=1  nzeta=2  polorb=0
            splnorm:   0.15000    
               vcte:    0.0000    
               rinn:    0.0000    
                rcs:    0.0000      0.0000    
            lambdas:    1.0000      1.0000    
L=1  Nsemic=0  Cnfigmx=2
          n=1  nzeta=2  polorb=1
            splnorm:   0.15000    
               vcte:    0.0000    
               rinn:    0.0000    
                rcs:    0.0000      0.0000    
            lambdas:    1.0000      1.0000    
-------------------------------------------------------------------------------
L=0  Nkbl=1  erefs: 0.17977+309
L=1  Nkbl=1  erefs: 0.17977+309
L=2  Nkbl=1  erefs: 0.17977+309
L=3  Nkbl=1  erefs: 0.17977+309
===============================================================================
</basis_specs>

atom: Called for B                     (Z =   5)

read_vps: Pseudopotential generation method:
read_vps: ATM3      Troullier-Martins                       
Total valence charge:    3.00000

read_vps: Pseudopotential includes a core correction:
read_vps: Pseudo-core for xc-correction

xc_check: Exchange-correlation functional:
xc_check: GGA Perdew, Burke & Ernzerhof 1996
V l=0 = -2*Zval/r beyond r=  1.7165
V l=1 = -2*Zval/r beyond r=  1.7165
V l=2 = -2*Zval/r beyond r=  1.7165
V l=3 = -2*Zval/r beyond r=  1.6951
All V_l potentials equal beyond r=  1.7165
This should be close to max(r_c) in ps generation
All pots = -2*Zval/r beyond r=  1.7165

VLOCAL1: 99.0% of the norm of Vloc inside     14.733 Ry
VLOCAL1: 99.9% of the norm of Vloc inside     33.577 Ry
atom: Maximum radius for 4*pi*r*r*local-pseudopot. charge    2.04484
atom: Maximum radius for r*vlocal+2*Zval:    1.75994
GHOST: No ghost state for L =  0
GHOST: No ghost state for L =  1
GHOST: No ghost state for L =  2
GHOST: No ghost state for L =  3

KBgen: Kleinman-Bylander projectors: 
   l= 0   rc=  1.897051   el= -0.693730   Ekb=  4.595746   kbcos=  0.286105
   l= 1   rc=  1.920920   el= -0.265236   Ekb= -2.350715   kbcos= -0.315747
   l= 2   rc=  2.044840   el=  0.002055   Ekb= -0.690767   kbcos= -0.013822
   l= 3   rc=  2.149707   el=  0.003188   Ekb= -0.315358   kbcos= -0.002055

KBgen: Total number of  Kleinman-Bylander projectors:   16
atom: -------------------------------------------------------------------------

atom: SANKEY-TYPE ORBITALS:
atom: Selected multiple-zeta basis: split     

SPLIT: Orbitals with angular momentum L= 0

SPLIT: Basis orbitals for state 2s

SPLIT: PAO cut-off radius determined from an
SPLIT: energy shift=  0.007350 Ry

   izeta = 1
                 lambda =    1.000000
                     rc =    5.422032
                 energy =   -0.686029
                kinetic =    0.576707
    potential(screened) =   -1.262736
       potential(ionic) =   -3.271094

   izeta = 2
                 rmatch =    4.222573
              splitnorm =    0.150000
                 energy =   -0.602132
                kinetic =    0.858975
    potential(screened) =   -1.461107
       potential(ionic) =   -3.582536

SPLIT: Orbitals with angular momentum L= 1

SPLIT: Basis orbitals for state 2p

SPLIT: PAO cut-off radius determined from an
SPLIT: energy shift=  0.007350 Ry

   izeta = 1
                 lambda =    1.000000
                     rc =    6.790259
                 energy =   -0.258578
                kinetic =    1.481412
    potential(screened) =   -1.739989
       potential(ionic) =   -3.657461

   izeta = 2
                 rmatch =    4.608740
              splitnorm =    0.150000
                 energy =   -0.173757
                kinetic =    2.186690
    potential(screened) =   -2.360447
       potential(ionic) =   -4.464260

POLgen: Perturbative polarization orbital with L=  2

POLgen: Polarization orbital for state 2p

   izeta = 1
                     rc =    6.790259
                 energy =    0.684082
                kinetic =    1.471481
    potential(screened) =   -0.787399
       potential(ionic) =   -2.406985
atom: Total number of Sankey-type orbitals: 13

atm_pop: Valence configuration (for local Pseudopot. screening):
 2s( 2.00)                                                            
 2p( 1.00)                                                            
Vna: chval, zval:    3.00000   3.00000

Vna:  Cut-off radius for the neutral-atom potential:   6.790259
comcore: Pseudo-core radius Rcore=  2.122997

atom: _________________________________________________________________________

<basis_specs>
===============================================================================
C                    Z=   6    Mass=  12.010        Charge= 0.17977+309
Lmxo=1 Lmxkb= 3    BasisType=split      Semic=F
L=0  Nsemic=0  Cnfigmx=2
          n=1  nzeta=2  polorb=0
            splnorm:   0.15000    
               vcte:    0.0000    
               rinn:    0.0000    
                rcs:    0.0000      0.0000    
            lambdas:    1.0000      1.0000    
L=1  Nsemic=0  Cnfigmx=2
          n=1  nzeta=2  polorb=1
            splnorm:   0.15000    
               vcte:    0.0000    
               rinn:    0.0000    
                rcs:    0.0000      0.0000    
            lambdas:    1.0000      1.0000    
-------------------------------------------------------------------------------
L=0  Nkbl=1  erefs: 0.17977+309
L=1  Nkbl=1  erefs: 0.17977+309
L=2  Nkbl=1  erefs: 0.17977+309
L=3  Nkbl=1  erefs: 0.17977+309
===============================================================================
</basis_specs>

atom: Called for C                     (Z =   6)

read_vps: Pseudopotential generation method:
read_vps: ATM3      Troullier-Martins                       
Total valence charge:    4.00000

read_vps: Pseudopotential includes a core correction:
read_vps: Pseudo-core for xc-correction

xc_check: Exchange-correlation functional:
xc_check: GGA Perdew, Burke & Ernzerhof 1996
V l=0 = -2*Zval/r beyond r=  1.5227
V l=1 = -2*Zval/r beyond r=  1.5227
V l=2 = -2*Zval/r beyond r=  1.5227
V l=3 = -2*Zval/r beyond r=  1.5038
All V_l potentials equal beyond r=  1.5227
This should be close to max(r_c) in ps generation
All pots = -2*Zval/r beyond r=  1.5227

VLOCAL1: 99.0% of the norm of Vloc inside     18.722 Ry
VLOCAL1: 99.9% of the norm of Vloc inside     42.668 Ry
atom: Maximum radius for 4*pi*r*r*local-pseudopot. charge    1.83678
atom: Maximum radius for r*vlocal+2*Zval:    1.58088
GHOST: No ghost state for L =  0
GHOST: No ghost state for L =  1
GHOST: No ghost state for L =  2
GHOST: No ghost state for L =  3

KBgen: Kleinman-Bylander projectors: 
   l= 0   rc=  1.704034   el= -1.009801   Ekb=  5.335044   kbcos=  0.316824
   l= 1   rc=  1.704034   el= -0.388707   Ekb= -3.785862   kbcos= -0.366464
   l= 2   rc=  1.791422   el=  0.001971   Ekb= -0.970471   kbcos= -0.009212
   l= 3   rc=  1.859892   el=  0.003065   Ekb= -0.399525   kbcos= -0.001223

KBgen: Total number of  Kleinman-Bylander projectors:   16
atom: -------------------------------------------------------------------------

atom: SANKEY-TYPE ORBITALS:
atom: Selected multiple-zeta basis: split     

SPLIT: Orbitals with angular momentum L= 0

SPLIT: Basis orbitals for state 2s

SPLIT: PAO cut-off radius determined from an
SPLIT: energy shift=  0.007350 Ry

   izeta = 1
                 lambda =    1.000000
                     rc =    4.632753
                 energy =   -1.002270
                kinetic =    0.855760
    potential(screened) =   -1.858031
       potential(ionic) =   -5.417575

   izeta = 2
                 rmatch =    3.431921
              splitnorm =    0.150000
                 energy =   -0.867111
                kinetic =    1.300804
    potential(screened) =   -2.167915
       potential(ionic) =   -5.962684

SPLIT: Orbitals with angular momentum L= 1

SPLIT: Basis orbitals for state 2p

SPLIT: PAO cut-off radius determined from an
SPLIT: energy shift=  0.007350 Ry

   izeta = 1
                 lambda =    1.000000
                     rc =    5.658549
                 energy =   -0.381140
                kinetic =    2.399701
    potential(screened) =   -2.780841
       potential(ionic) =   -6.206085

   izeta = 2
                 rmatch =    3.653288
              splitnorm =    0.150000
                 energy =   -0.249149
                kinetic =    3.542762
    potential(screened) =   -3.791911
       potential(ionic) =   -7.581078

POLgen: Perturbative polarization orbital with L=  2

POLgen: Polarization orbital for state 2p

   izeta = 1
                     rc =    5.658549
                 energy =    1.109913
                kinetic =    2.304789
    potential(screened) =   -1.194876
       potential(ionic) =   -4.013592
atom: Total number of Sankey-type orbitals: 13

atm_pop: Valence configuration (for local Pseudopot. screening):
 2s( 2.00)                                                            
 2p( 2.00)                                                            
Vna: chval, zval:    4.00000   4.00000

Vna:  Cut-off radius for the neutral-atom potential:   5.658549
comcore: Pseudo-core radius Rcore=  1.791422

atom: _________________________________________________________________________

prinput: Basis input ----------------------------------------------------------

PAO.BasisType split     

%block ChemicalSpeciesLabel
    1    5 B                       # Species index, atomic number, species label
    2    6 C                       # Species index, atomic number, species label
%endblock ChemicalSpeciesLabel

%block PAO.Basis                 # Define Basis set
B                     2                    # Species label, number of l-shells
 n=2   0   2                         # n, l, Nzeta 
   5.422      4.223   
   1.000      1.000   
 n=2   1   2 P   1                   # n, l, Nzeta, Polarization, NzetaPol
   6.790      4.609   
   1.000      1.000   
C                     2                    # Species label, number of l-shells
 n=2   0   2                         # n, l, Nzeta 
   4.633      3.432   
   1.000      1.000   
 n=2   1   2 P   1                   # n, l, Nzeta, Polarization, NzetaPol
   5.659      3.653   
   1.000      1.000   
%endblock PAO.Basis

prinput: ----------------------------------------------------------------------

coor:   Atomic-coordinates input format  =     Fractional

siesta: Atomic coordinates (Bohr) and species
siesta:      2.30256   9.31683   0.00000  1        1
siesta:      9.28770  21.41544   0.00000  1        2
siesta:     -0.02582  10.66124   0.00000  1        3
siesta:     -0.02582  13.34970   0.00000  1        4
siesta:      4.63094  21.41544   0.00000  1        5
siesta:      6.95932  22.75985   0.00000  1        6
siesta:     -2.35420  14.69411   0.00000  1        7
siesta:     -2.35420  17.38257   0.00000  1        8
siesta:     -0.02582  18.72698   0.00000  1        9
siesta:     -0.02582  21.41544   0.00000  1       10
siesta:      2.30256  22.75985   0.00000  1       11
siesta:     -9.33934  21.41544   0.00000  1       12
siesta:    -11.66772  22.75985   0.00000  1       13
siesta:      2.30256  33.51406   0.00000  1       14
siesta:     -0.02582  34.85847   0.00000  1       15
siesta:     -0.02582   2.59549   0.00000  2       16
siesta:     -0.02582   5.28395   0.00000  2       17
siesta:     -2.35420  38.89134   0.00000  2       18
siesta:     -2.35420  41.57980   0.00000  2       19
siesta:      2.30256  38.89134   0.00000  2       20
siesta:      2.30256  41.57980   0.00000  2       21
siesta:      4.63094  34.85847   0.00000  2       22
siesta:      4.63094  37.54693   0.00000  2       23
siesta:      6.95932  30.82560   0.00000  2       24
siesta:      6.95932  33.51406   0.00000  2       25
siesta:      9.28770  26.79272   0.00000  2       26
siesta:      9.28770  29.48119   0.00000  2       27
siesta:     -4.68258  34.85847   0.00000  2       28
siesta:     -4.68258  37.54693   0.00000  2       29
siesta:      2.30256   6.62836   0.00000  2       30
siesta:      4.63094  10.66124   0.00000  2       31
siesta:      4.63094  13.34970   0.00000  2       32
siesta:      6.95932  14.69411   0.00000  2       33
siesta:      6.95932  17.38257   0.00000  2       34
siesta:      9.28770  18.72698   0.00000  2       35
siesta:     11.61608  22.75985   0.00000  2       36
siesta:     11.61608  25.44831   0.00000  2       37
siesta:     -2.35420   6.62836   0.00000  2       38
siesta:     -2.35420   9.31683   0.00000  2       39
siesta:      2.30256  14.69411   0.00000  2       40
siesta:      2.30256  17.38257   0.00000  2       41
siesta:      4.63094  18.72698   0.00000  2       42
siesta:      6.95932  25.44831   0.00000  2       43
siesta:     -4.68258  10.66124   0.00000  2       44
siesta:     -4.68258  13.34970   0.00000  2       45
siesta:      2.30256  25.44831   0.00000  2       46
siesta:     -7.01096  14.69411   0.00000  2       47
siesta:     -7.01096  17.38257   0.00000  2       48
siesta:     -4.68258  18.72698   0.00000  2       49
siesta:     -4.68258  21.41544   0.00000  2       50
siesta:     -2.35420  22.75985   0.00000  2       51
siesta:     -2.35420  25.44831   0.00000  2       52
siesta:     -9.33934  18.72698   0.00000  2       53
siesta:     -7.01096  22.75985   0.00000  2       54
siesta:     -7.01096  25.44831   0.00000  2       55
siesta:    -11.66772  25.44831   0.00000  2       56
siesta:     -9.33934  26.79272   0.00000  2       57
siesta:     -9.33934  29.48119   0.00000  2       58
siesta:      4.63094  26.79272   0.00000  2       59
siesta:      4.63094  29.48119   0.00000  2       60
siesta:     -0.02582  26.79272   0.00000  2       61
siesta:     -0.02582  29.48119   0.00000  2       62
siesta:     -4.68258  26.79272   0.00000  2       63
siesta:     -4.68258  29.48119   0.00000  2       64
siesta:      2.30256  30.82560   0.00000  2       65
siesta:     -2.35420  30.82560   0.00000  2       66
siesta:     -2.35420  33.51406   0.00000  2       67
siesta:     -7.01096  30.82560   0.00000  2       68
siesta:     -7.01096  33.51406   0.00000  2       69
siesta:     -0.02582  37.54693   0.00000  2       70
siesta:     -0.02582  42.92421   0.00000  2       71
siesta:     -0.02582  45.61267   0.00000  2       72

siesta: System type = slab      

initatomlists: Number of atoms, orbitals, and projectors:     72   936  1152

siesta: ******************** Simulation parameters ****************************
siesta:
siesta: The following are some of the parameters of the simulation.
siesta: A complete list of the parameters used, including default values,
siesta: can be found in file out.fdf
siesta:
redata: Non-Collinear-spin run           =     F
redata: SpinPolarized (Up/Down) run      =     F
redata: Number of spin components        =     1
redata: Long output                      =     F
redata: Number of Atomic Species         =        2
redata: Charge density info will appear in .RHO file
redata: Write Mulliken Pop.              =     NO
redata: Mesh Cutoff                      =   200.0000  Ry
redata: Net charge of the system         =     0.0000 |e|
redata: Max. number of SCF Iter          =      500
redata: SCF convergence failure will abort job
redata: Performing Pulay mixing using    =    10 iterations
redata: Mix DM in first SCF step ?       =     F
redata: Write Pulay info on disk?        =     F
redata: Discard 1st Pulay DM after  kick =     F
redata: New DM Mixing Weight             =     0.0500
redata: New DM Occupancy tolerance       = 0.000000000001
redata: No kicks to SCF
redata: DM Mixing Weight for Kicks       =     0.5000
redata: DM Tolerance for SCF             =     0.000100
redata: Require Energy convergence for SCF =     F
redata: DM Energy tolerance for SCF      =     0.000100 eV
redata: Require Harris convergence for SCF =     F
redata: DM Harris energy tolerance for SCF =     0.000100 eV
redata: Using Saved Data (generic)   =     F
redata: Use continuation files for DM    =     T
redata: Neglect nonoverlap interactions  =     F
redata: Method of Calculation            =     Diagonalization
redata: Divide and Conquer               =     T
redata: Electronic Temperature           =     0.0019  Ry
redata: Fix the spin of the system       =     F
redata: Dynamics option                  =     Verlet MD run
redata: Initial MD time step             =        1
redata:   Final MD time step             =        1
redata: Length of MD time step           =     1.0000  fs
redata: Initial Temperature of MD run    =     0.0000  K
redata: Perform a MD quench              =     F
redata: ***********************************************************************
Total number of electrons:   273.000000
Total ionic charge:   273.000000

* ProcessorY, Blocksize:    3  24

k-point displ. along   1 input, could be:     0.50    0.00
k-point displ. along   2 input, could be:     0.50    0.00
 Kpoints in:          231 . Kpoints trimmed:          231

siesta: k-grid: Number of k-points =   231
siesta: k-grid: Cutoff (effective) =     5.000 Ang
siesta: k-grid: Supercell and displacements
siesta: k-grid:   21   0   0      0.500
siesta: k-grid:    0  21   0      0.500
siesta: k-grid:    0   0   1      0.000
Naive supercell factors:     2    2    2

superc: Internal auxiliary supercell:     2 x     2 x     2  =       8
superc: Number of atoms, orbitals, and projectors:    576   7488   9216

* Maximum dynamic memory allocated =     4 MB

siesta:                 ==============================
                            Begin MD step =      1
                        ==============================

superc: Internal auxiliary supercell:     2 x     2 x     2  =       8
superc: Number of atoms, orbitals, and projectors:    576   7488   9216

outcell: Unit cell vectors (Ang):
       12.804619    7.392750    0.000000
        0.000000   14.785500    0.000000
        0.000000    0.000000   10.000000

outcell: Cell vector modules (Ang)   :   14.785500   14.785500   10.000000
outcell: Cell angles (23,13,12) (deg):     90.0000     90.0000     60.0000
outcell: Cell volume (Ang**3)        :   1893.2269
New_DM. Step:     1
Initializing Density Matrix...

InitMesh: MESH =   120 x   120 x    90 =     1296000
InitMesh: Mesh cutoff (required, used) =   200.000   223.865 Ry

* Maximum dynamic memory allocated =   156 MB

stepf: Fermi-Dirac step function

siesta: Program's energy decomposition (eV):
siesta: Ebs     =     -5606.129679
siesta: Eions   =     16482.160403
siesta: Ena     =      4359.578041
siesta: Ekin    =      5587.107004
siesta: Enl     =       768.197200
siesta: DEna    =        -0.000010
siesta: DUscf   =         0.000000
siesta: DUext   =         0.000000
siesta: Exc     =     -4183.747177
siesta: eta*DQ  =         0.000000
siesta: Emadel  =         0.000000
siesta: Emeta   =         0.000000
siesta: Emolmec =         0.000000
siesta: Ekinion =         0.000000
siesta: Eharris =     -9736.857133
siesta: Etot    =     -9951.025345
siesta: FreeEng =     -9951.025345

siesta: iscf   Eharris(eV)      E_KS(eV)   FreeEng(eV)   dDmax  Ef(eV)
siesta:    1    -9736.8571    -9951.0253    -9951.0253  7.2587 -8.2604
timer: Routine,Calls,Time,% = IterSCF        1    3061.864  99.59
elaps: Routine,Calls,Wall,% = IterSCF        1     255.762  99.59
siesta:    2   -14531.8815    -8932.6257    -8932.6918 16.1708 -4.4169
siesta:    3    -9772.3133    -9762.0399    -9762.0817  1.7750 -5.3019
siesta:    4    -9695.4596    -9700.1830    -9700.2100  1.4266 -4.9669
siesta:    5    -9623.7467    -9636.5733    -9636.6014  1.1635 -5.2783
siesta:    6    -9600.5411    -9605.8950    -9605.9168  0.9498 -4.9628
siesta:    7    -9590.9056    -9591.5035    -9591.5742  0.9171 -4.9318
siesta:    8    -9583.2100    -9577.4626    -9577.5401  0.7634 -4.9983
siesta:    9    -9581.1803    -9571.3102    -9571.3511  0.6979 -5.0517
siesta:   10    -9580.4663    -9565.0664    -9565.1292  0.5550 -5.0323
siesta:   11    -9580.5339    -9560.8022    -9560.8595  0.3877 -5.0383
siesta:   12    -9579.2323    -9558.3011    -9558.3797  0.3624 -4.9584
siesta:   13    -9578.9181    -9558.3315    -9558.4092  0.2332 -4.9158
siesta:   14    -9578.5496    -9561.2383    -9561.3342  0.1627 -4.8978
siesta:   15    -9578.3634    -9563.3638    -9563.4496  0.1724 -4.9278
siesta:   16    -9578.1964    -9570.5680    -9570.6470  0.1152 -4.9663
siesta:   17    -9578.0552    -9575.5880    -9575.6639  0.0963 -5.0187
siesta:   18    -9578.0405    -9576.7760    -9576.8594  0.0950 -5.0325
siesta:   19    -9577.9691    -9577.0280    -9577.1098  0.0636 -5.0151
siesta:   20    -9577.9589    -9577.2724    -9577.3615  0.0312 -5.0072
siesta:   21    -9577.9489    -9577.7302    -9577.8164  0.0282 -5.0072
siesta:   22    -9577.9399    -9577.7805    -9577.8663  0.0196 -5.0063
siesta:   23    -9577.9298    -9577.6427    -9577.7257  0.0145 -5.0013
siesta:   24    -9577.9260    -9577.7102    -9577.7941  0.0172 -5.0002
siesta:   25    -9577.9248    -9577.8056    -9577.8900  0.0083 -4.9997
siesta:   26    -9577.9240    -9577.8469    -9577.9317  0.0074 -4.9987
siesta:   27    -9577.9236    -9577.8520    -9577.9370  0.0052 -4.9978
siesta:   28    -9577.9238    -9577.8097    -9577.8948  0.0040 -4.9985
siesta:   29    -9577.9238    -9577.8431    -9577.9279  0.0031 -4.9992
siesta:   30    -9577.9240    -9577.8573    -9577.9421  0.0023 -4.9996
siesta:   31    -9577.9238    -9577.8786    -9577.9632  0.0012 -4.9992
siesta:   32    -9577.9238    -9577.8776    -9577.9623  0.0008 -4.9991
siesta:   33    -9577.9237    -9577.8904    -9577.9752  0.0009 -4.9991
siesta:   34    -9577.9237    -9577.9038    -9577.9886  0.0007 -4.9991
siesta:   35    -9577.9238    -9577.9155    -9578.0003  0.0005 -4.9991
siesta:   36    -9577.9238    -9577.9195    -9578.0043  0.0004 -4.9990
siesta:   37    -9577.9238    -9577.9259    -9578.0107  0.0002 -4.9990
siesta:   38    -9577.9237    -9577.9234    -9578.0082  0.0002 -4.9989
siesta:   39    -9577.9238    -9577.9241    -9578.0089  0.0001 -4.9989

siesta: E_KS(eV) =            -9577.9232

siesta: E_KS - E_eggbox =     -9577.9232

siesta: Atomic forces (eV/Ang):
----------------------------------------
   Tot   -0.125469    0.158084    0.000000
----------------------------------------
   Max  559.257345
   Res  143.675533    sqrt( Sum f_i^2 / 3N )
----------------------------------------
   Max  559.257345    constrained

Stress-tensor-Voigt (kbar):     -703.23    -2576.23       -0.53       25.16        0.00        0.00
(Free)E + p*V (eV/cell)    -8286.0796
Target enthalpy (eV/cell)    -9578.0080

siesta: Stress tensor (static) (eV/Ang**3):
        -0.438916    0.015706    0.000000
         0.015706   -1.607940    0.000000
         0.000000    0.000000   -0.000329

siesta: Pressure (static):       1093.32899757  kBar

siesta: Stress tensor (total) (eV/Ang**3):
        -0.438916    0.015706    0.000000
         0.015706   -1.607940    0.000000
         0.000000    0.000000   -0.000329

siesta: Pressure (total):       1093.32899757  kBar

siesta: Temp_ion =       0.000 K

* Maximum dynamic memory allocated =   168 MB
Computing bands...

siesta: Program's energy decomposition (eV):
siesta: Ebs     =     -4270.591853
siesta: Eions   =     16482.160403
siesta: Ena     =      4359.578041
siesta: Ekin    =      8410.403104
siesta: Enl     =      -869.190131
siesta: DEna    =      -749.386394
siesta: DUscf   =       100.267899
siesta: DUext   =         0.000000
siesta: Exc     =     -4347.435348
siesta: eta*DQ  =         0.000000
siesta: Emadel  =         0.000000
siesta: Emeta   =         0.000000
siesta: Emolmec =         0.000000
siesta: Ekinion =         0.000000
siesta: Eharris =     -9577.923753
siesta: Etot    =     -9577.923232
siesta: FreeEng =     -9578.008026

siesta: Final energy (eV):
siesta:  Band Struct. =   -4270.591853
siesta:       Kinetic =    8410.403104
siesta:       Hartree =   27105.847554
siesta:    Ext. field =       0.000000
siesta:   Exch.-corr. =   -4347.435348
siesta:  Ion-electron =  -62344.916992
siesta:       Ion-ion =   21598.178450
siesta:       Ekinion =       0.000000
siesta:         Total =   -9577.923232

siesta: Atomic forces (eV/Ang):
siesta:      1   -2.900563 -106.725543    0.000000
siesta:      2    8.197287   -4.559671    0.000000
siesta:      3    2.565004  386.046312    0.000000
siesta:      4   -2.161765 -107.492088    0.000000
siesta:      5   -0.389074   -5.563803    0.000000
siesta:      6   -1.048353    5.848898    0.000000
siesta:      7  -19.228201  396.730863    0.000000
siesta:      8  -19.339205    1.517291    0.000000
siesta:      9   -1.706616  411.675894    0.000000
siesta:     10   -2.885004    0.311211    0.000000
siesta:     11    0.307440    5.395789    0.000000
siesta:     12    0.516267   -3.756296    0.000000
siesta:     13   -6.767940    4.496445    0.000000
siesta:     14   20.288631 -402.679569    0.000000
siesta:     15    0.568550  107.888701    0.000000
siesta:     16   -1.741451  549.943869    0.000000
siesta:     17    6.367983 -130.112682    0.000000
siesta:     18    1.939638  122.534003    0.000000
siesta:     19  -15.836177 -401.905761    0.000000
siesta:     20   -5.360984  128.825943    0.000000
siesta:     21   25.564058 -556.124775    0.000000
siesta:     22   22.624687    0.705719    0.000000
siesta:     23   33.820559 -552.233877    0.000000
siesta:     24    1.401680    0.430092    0.000000
siesta:     25   -1.473033    2.221873    0.000000
siesta:     26    2.280006    2.529052    0.000000
siesta:     27   -0.507944   -0.069839    0.000000
siesta:     28  -26.590928    4.471749    0.000000
siesta:     29  -36.349681 -550.603086    0.000000
siesta:     30   12.152043  398.816078    0.000000
siesta:     31   24.419560  544.845185    0.000000
siesta:     32   26.231513   -5.239727    0.000000
siesta:     33   -2.323001   -1.578230    0.000000
siesta:     34    3.405388   -1.977492    0.000000
siesta:     35   -2.743753   -3.913751    0.000000
siesta:     36    1.685089    8.593399    0.000000
siesta:     37    0.097224   -5.991885    0.000000
siesta:     38  -20.462860  553.884858    0.000000
siesta:     39    8.594473 -121.363614    0.000000
siesta:     40   13.909441  553.773406    0.000000
siesta:     41   22.816711   -2.829908    0.000000
siesta:     42   -2.375172   -2.075086    0.000000
siesta:     43   -0.725283    3.217984    0.000000
siesta:     44  -30.106257  550.363353    0.000000
siesta:     45  -24.681494    1.242107    0.000000
siesta:     46   -1.424686    3.705988    0.000000
siesta:     47    2.454212   -2.688136    0.000000
siesta:     48   -3.650144   -0.968536    0.000000
siesta:     49   -0.281654    1.870622    0.000000
siesta:     50   -0.604706    1.251206    0.000000
siesta:     51   -1.824211    1.732075    0.000000
siesta:     52   -0.532628   -0.099286    0.000000
siesta:     53    2.503876   -3.146687    0.000000
siesta:     54    3.135179    1.698364    0.000000
siesta:     55    1.034810   -0.309180    0.000000
siesta:     56   -0.050160   -0.481240    0.000000
siesta:     57   -2.184123    1.575748    0.000000
siesta:     58    0.325140   -0.038893    0.000000
siesta:     59    1.202139    1.009682    0.000000
siesta:     60   -0.657492   -2.244675    0.000000
siesta:     61    0.935811   -1.054748    0.000000
siesta:     62    1.824756 -559.257345    0.000000
siesta:     63   -0.367535    0.055254    0.000000
siesta:     64    0.572516   -1.636621    0.000000
siesta:     65   22.346880    3.979715    0.000000
siesta:     66  -22.114482    6.497979    0.000000
siesta:     67  -13.585918 -552.443492    0.000000
siesta:     68   -1.202265    0.146845    0.000000
siesta:     69    2.849064    2.283434    0.000000
siesta:     70    2.547563 -395.799452    0.000000
siesta:     71   -8.441912  124.028263    0.000000
siesta:     72    3.016011 -409.022197    0.000000
siesta: ----------------------------------------
siesta:    Tot   -0.125469    0.158084    0.000000

siesta: Stress tensor (static) (eV/Ang**3):
siesta:    -0.438916    0.015706    0.000000
siesta:     0.015706   -1.607940    0.000000
siesta:     0.000000    0.000000   -0.000329

siesta: Cell volume =       1893.226884 Ang**3

siesta: Pressure (static):
siesta:                Solid            Molecule  Units
siesta:           0.00743215          0.11000510  Ry/Bohr**3
siesta:           0.68239491         10.10029446  eV/Ang**3
siesta:        1093.32899757      16182.63070132  kBar
(Free)E+ p_basis*V_orbitals  =       -9542.531107
(Free)Eharris+ p_basis*V_orbitals  =       -9542.530767

siesta: Electric dipole (a.u.)  =    0.000000    0.000000    0.000000
siesta: Electric dipole (Debye) =    0.000000    0.000000    0.000000

* Maximum dynamic memory allocated : Node    0 =   165 MB
* Maximum dynamic memory allocated : Node    1 =    66 MB
* Maximum dynamic memory allocated : Node    2 =    67 MB
* Maximum dynamic memory allocated : Node    3 =   152 MB
* Maximum dynamic memory allocated : Node    4 =   168 MB
* Maximum dynamic memory allocated : Node    5 =    62 MB
* Maximum dynamic memory allocated : Node    6 =    62 MB
* Maximum dynamic memory allocated : Node    7 =   158 MB
* Maximum dynamic memory allocated : Node    8 =   152 MB
* Maximum dynamic memory allocated : Node    9 =    61 MB
* Maximum dynamic memory allocated : Node   10 =    62 MB
* Maximum dynamic memory allocated : Node   11 =   144 MB

* Maximum memory occured during matrixMtoO                    

timer: CPU execution times:
timer:  Routine       Calls   Time/call    Tot.time        %
timer:  siesta            1  116182.897  116182.897   100.00
timer:  Setup             1       3.447       3.447     0.00
timer:  bands             3     226.454     679.363     0.58
timer:  writewave         1       0.024       0.024     0.00
timer:  KSV_init          1       0.001       0.001     0.00
timer:  IterMD            1  115493.012  115493.012    99.41
timer:  hsparse           1       0.283       0.283     0.00
timer:  overlap           1       7.210       7.210     0.01
timer:  IterSCF          39    2957.247  115332.648    99.27
timer:  kinefsm           2       3.665       7.330     0.01
timer:  nlefsm            2      20.254      40.509     0.03
timer:  DHSCF            40      82.269    3290.772     2.83
timer:  DHSCF1            1       1.187       1.187     0.00
timer:  DHSCF2            1      33.413      33.413     0.03
timer:  REORD           322       0.002       0.724     0.00
timer:  POISON           41       0.449      18.393     0.02
timer:  DHSCF3           40      80.696    3227.822     2.78
timer:  rhoofd           40      16.978     679.133     0.58
timer:  cellXC           40       2.444      97.770     0.08
timer:  vmat             40      38.519    1540.778     1.33
timer:  MolMec            2       0.000       0.000     0.00
timer:  diagon           39    2873.829  112079.319    96.47
timer:  c-eigval       9130       5.595   51083.001    43.97
timer:  c-buildHS      9130       0.036     329.282     0.28
timer:  cdiag         18139       5.693  103273.981    88.89
timer:  cdiag1        18139       0.261    4739.106     4.08
timer:  cdiag2        18139       1.835   33284.656    28.65
timer:  cdiag3        18139       3.387   61429.001    52.87
timer:  cdiag4        18139       0.088    1592.915     1.37
timer:  c-eigvec       9009       5.860   52794.956    45.44
timer:  c-buildD       9009       0.980    8830.930     7.60
timer:  DHSCF4            1      28.047      28.047     0.02
timer:  dfscf             1      25.938      25.938     0.02
timer:  overfsm           1       0.323       0.323     0.00
timer:  optical           1       6.462       6.462     0.01
  

elaps: ELAPSED times:
elaps:  Routine       Calls   Time/call    Tot.time        %
elaps:  siesta            1    9704.635    9704.635   100.00
elaps:  Setup             1       0.288       0.288     0.00
elaps:  bands             3      18.932      56.795     0.59
elaps:  writewave         1       0.002       0.002     0.00
elaps:  KSV_init          1       0.000       0.000     0.00
elaps:  IterMD            1    9647.010    9647.010    99.41
elaps:  hsparse           1       0.027       0.027     0.00
elaps:  overlap           1       0.714       0.714     0.01
elaps:  IterSCF          39     247.016    9633.615    99.27
elaps:  kinefsm           2       0.366       0.733     0.01
elaps:  nlefsm            2       1.826       3.652     0.04
elaps:  DHSCF            40       6.924     276.977     2.85
elaps:  DHSCF1            1       0.101       0.101     0.00
elaps:  DHSCF2            1       2.790       2.790     0.03
elaps:  REORD           322       0.000       0.097     0.00
elaps:  POISON           41       0.038       1.549     0.02
elaps:  DHSCF3           40       6.742     269.664     2.78
elaps:  rhoofd           40       2.816     112.642     1.16
elaps:  cellXC           40       0.204       8.147     0.08
elaps:  vmat             40       3.218     128.740     1.33
elaps:  MolMec            2       0.000       0.000     0.00
elaps:  diagon           39     240.054    9362.121    96.47
elaps:  c-eigval       9130       0.467    4266.847    43.97
elaps:  c-buildHS      9130       0.004      34.187     0.35
elaps:  cdiag         18139       0.471    8538.050    87.98
elaps:  cdiag1        18139       0.022     390.464     4.02
elaps:  cdiag2        18139       0.153    2782.756    28.67
elaps:  cdiag3        18139       0.283    5138.972    52.95
elaps:  cdiag4        18139       0.007     127.372     1.31
elaps:  c-eigvec       9009       0.481    4334.225    44.66
elaps:  c-buildD       9009       0.090     813.137     8.38
elaps:  DHSCF4            1       4.378       4.378     0.05
elaps:  dfscf             1       4.123       4.123     0.04
elaps:  overfsm           1       0.034       0.034     0.00
elaps:  optical           1       0.000       0.000     0.00
  
>> End of run:   3-MAY-2016  23:24:48
