Siesta Version:                                        siesta-3.2-pl-3
Architecture  : x86_64-unknown-linux-gnu--unknown
Compiler flags: mpiifort -g -O2 -fPIC -xSSE4.1 -fp-model source -shared-intel 
PARALLEL version

* Running on   12 nodes in parallel
>> Start of run:   6-APR-2016  15:14:40

                           ***********************       
                           *  WELCOME TO SIESTA  *       
                           ***********************       

reinit: Reading from standard input
************************** Dump of input data file ****************************
#(1) General system descriptors
SystemName            GRP_doping    # Descriptive name of the system
SystemLabel           GRP_doping    # Short name for naming files
%include STRUCT.fdf
%include KPT.fdf
%include BASIS.fdf
#%include TS.fdf # for transiesta calculation
#(4) DFT, Grid, SCF
XC.functional         GGA           # LDA or GGA (default = LDA)
XC.authors            PBE           # CA (Ceperley-Aldr) = PZ
                                    #    (Perdew-Zunger) - LDA - Default
                                    # PW92 (Perdew-Wang-92) - LDA
                                    # PBE (Perdew-Burke-Ernzerhof) - GGA
MeshCutoff            200.000000    Ry      # Default: 50.0 Ry ~ 0.444 Bohr
                                    #         100.0 Ry ~ 0.314 Bohr
MaxSCFIterations      500           # Default: 50
DM.MixingWeight       0.05          # Default: 0.25
DM.NumberPulay        10            # Default: 0
DM.PulayOnFile        F             # SystemLabel.P1, SystemLabel.P2
DM.Tolerance          1.d-4         # Default: 1.d-4
DM.UseSaveDM          .true.        # because of the bug
SCFMustConverge       .true.
NeglNonOverlapInt     F             # Default: F
Diag.ParallelOverK    .true.
#(5) Eigenvalue problem: order-N or diagonalization
SolutionMethod        Diagon        # or Transiesta
ElectronicTemperature 300.0 K       # Default: 300.0 K
#(6) Molecular dynamics and relaxations
#MD.TypeOfRun          CG            # Type of dynamics:
#MD.VariableCell       F
#MD.NumCGsteps         0           # 0 for single-point / 100 for gopt
#MD.MaxCGDispl         0.2 Bohr      # Default: 0.2 Bohr
#MD.MaxForceTol        0.02 eV/Ang   # Default: 0.04 eV/Ang
#MD.MaxStressTol       1.0 GPa       # Default: 1.0 GPa
************************** End of input data file *****************************

reinit: -----------------------------------------------------------------------
reinit: System Name: GRP_doping
reinit: -----------------------------------------------------------------------
reinit: System Label: GRP_doping                                                  
reinit: -----------------------------------------------------------------------

initatom: Reading input for the pseudopotentials and atomic orbitals ----------
 Species number:            1  Label: C Atomic number:           6
 Species number:            2  Label: N Atomic number:           7
Ground state valence configuration:   2s02  2p02
Reading pseudopotential information in formatted form from C.psf

Valence configuration for pseudopotential generation:
2s( 2.00) rc: 1.54
2p( 2.00) rc: 1.54
3d( 0.00) rc: 1.54
4f( 0.00) rc: 1.54
Ground state valence configuration:   2s02  2p03
Reading pseudopotential information in formatted form from N.psf

Valence configuration for pseudopotential generation:
2s( 2.00) rc: 1.48
2p( 3.00) rc: 1.48
3d( 0.00) rc: 1.48
4f( 0.00) rc: 1.48
For C, standard SIESTA heuristics set lmxkb to 3
 (one more than the basis l, including polarization orbitals).
Use PS.lmax or PS.KBprojectors blocks to override.
For N, standard SIESTA heuristics set lmxkb to 3
 (one more than the basis l, including polarization orbitals).
Use PS.lmax or PS.KBprojectors blocks to override.

<basis_specs>
===============================================================================
C                    Z=   6    Mass=  12.010        Charge= 0.17977+309
Lmxo=1 Lmxkb= 3    BasisType=split      Semic=F
L=0  Nsemic=0  Cnfigmx=2
          n=1  nzeta=2  polorb=0
            splnorm:   0.15000    
               vcte:    0.0000    
               rinn:    0.0000    
                rcs:    0.0000      0.0000    
            lambdas:    1.0000      1.0000    
L=1  Nsemic=0  Cnfigmx=2
          n=1  nzeta=2  polorb=1
            splnorm:   0.15000    
               vcte:    0.0000    
               rinn:    0.0000    
                rcs:    0.0000      0.0000    
            lambdas:    1.0000      1.0000    
-------------------------------------------------------------------------------
L=0  Nkbl=1  erefs: 0.17977+309
L=1  Nkbl=1  erefs: 0.17977+309
L=2  Nkbl=1  erefs: 0.17977+309
L=3  Nkbl=1  erefs: 0.17977+309
===============================================================================
</basis_specs>

atom: Called for C                     (Z =   6)

read_vps: Pseudopotential generation method:
read_vps: ATM3      Troullier-Martins                       
Total valence charge:    4.00000

read_vps: Pseudopotential includes a core correction:
read_vps: Pseudo-core for xc-correction

xc_check: Exchange-correlation functional:
xc_check: GGA Perdew, Burke & Ernzerhof 1996
V l=0 = -2*Zval/r beyond r=  1.5227
V l=1 = -2*Zval/r beyond r=  1.5227
V l=2 = -2*Zval/r beyond r=  1.5227
V l=3 = -2*Zval/r beyond r=  1.5038
All V_l potentials equal beyond r=  1.5227
This should be close to max(r_c) in ps generation
All pots = -2*Zval/r beyond r=  1.5227

VLOCAL1: 99.0% of the norm of Vloc inside     18.722 Ry
VLOCAL1: 99.9% of the norm of Vloc inside     42.668 Ry
atom: Maximum radius for 4*pi*r*r*local-pseudopot. charge    1.83678
atom: Maximum radius for r*vlocal+2*Zval:    1.58088
GHOST: No ghost state for L =  0
GHOST: No ghost state for L =  1
GHOST: No ghost state for L =  2
GHOST: No ghost state for L =  3

KBgen: Kleinman-Bylander projectors: 
   l= 0   rc=  1.704034   el= -1.009801   Ekb=  5.335044   kbcos=  0.316824
   l= 1   rc=  1.704034   el= -0.388707   Ekb= -3.785862   kbcos= -0.366464
   l= 2   rc=  1.791422   el=  0.001971   Ekb= -0.970471   kbcos= -0.009212
   l= 3   rc=  1.859892   el=  0.003065   Ekb= -0.399525   kbcos= -0.001223

KBgen: Total number of  Kleinman-Bylander projectors:   16
atom: -------------------------------------------------------------------------

atom: SANKEY-TYPE ORBITALS:
atom: Selected multiple-zeta basis: split     

SPLIT: Orbitals with angular momentum L= 0

SPLIT: Basis orbitals for state 2s

SPLIT: PAO cut-off radius determined from an
SPLIT: energy shift=  0.007350 Ry

   izeta = 1
                 lambda =    1.000000
                     rc =    4.632753
                 energy =   -1.002270
                kinetic =    0.855760
    potential(screened) =   -1.858031
       potential(ionic) =   -5.417575

   izeta = 2
                 rmatch =    3.431921
              splitnorm =    0.150000
                 energy =   -0.867111
                kinetic =    1.300804
    potential(screened) =   -2.167915
       potential(ionic) =   -5.962684

SPLIT: Orbitals with angular momentum L= 1

SPLIT: Basis orbitals for state 2p

SPLIT: PAO cut-off radius determined from an
SPLIT: energy shift=  0.007350 Ry

   izeta = 1
                 lambda =    1.000000
                     rc =    5.658549
                 energy =   -0.381140
                kinetic =    2.399701
    potential(screened) =   -2.780841
       potential(ionic) =   -6.206085

   izeta = 2
                 rmatch =    3.653288
              splitnorm =    0.150000
                 energy =   -0.249149
                kinetic =    3.542762
    potential(screened) =   -3.791911
       potential(ionic) =   -7.581078

POLgen: Perturbative polarization orbital with L=  2

POLgen: Polarization orbital for state 2p

   izeta = 1
                     rc =    5.658549
                 energy =    1.109913
                kinetic =    2.304789
    potential(screened) =   -1.194876
       potential(ionic) =   -4.013592
atom: Total number of Sankey-type orbitals: 13

atm_pop: Valence configuration (for local Pseudopot. screening):
 2s( 2.00)                                                            
 2p( 2.00)                                                            
Vna: chval, zval:    4.00000   4.00000

Vna:  Cut-off radius for the neutral-atom potential:   5.658549
comcore: Pseudo-core radius Rcore=  1.791422

atom: _________________________________________________________________________

<basis_specs>
===============================================================================
N                    Z=   7    Mass=  14.010        Charge= 0.17977+309
Lmxo=1 Lmxkb= 3    BasisType=split      Semic=F
L=0  Nsemic=0  Cnfigmx=2
          n=1  nzeta=2  polorb=0
            splnorm:   0.15000    
               vcte:    0.0000    
               rinn:    0.0000    
                rcs:    0.0000      0.0000    
            lambdas:    1.0000      1.0000    
L=1  Nsemic=0  Cnfigmx=2
          n=1  nzeta=2  polorb=1
            splnorm:   0.15000    
               vcte:    0.0000    
               rinn:    0.0000    
                rcs:    0.0000      0.0000    
            lambdas:    1.0000      1.0000    
-------------------------------------------------------------------------------
L=0  Nkbl=1  erefs: 0.17977+309
L=1  Nkbl=1  erefs: 0.17977+309
L=2  Nkbl=1  erefs: 0.17977+309
L=3  Nkbl=1  erefs: 0.17977+309
===============================================================================
</basis_specs>

atom: Called for N                     (Z =   7)

read_vps: Pseudopotential generation method:
read_vps: ATM3      Troullier-Martins                       
Total valence charge:    5.00000

read_vps: Pseudopotential includes a core correction:
read_vps: Pseudo-core for xc-correction

xc_check: Exchange-correlation functional:
xc_check: GGA Perdew, Burke & Ernzerhof 1996
V l=0 = -2*Zval/r beyond r=  1.4606
V l=1 = -2*Zval/r beyond r=  1.4606
V l=2 = -2*Zval/r beyond r=  1.4606
V l=3 = -2*Zval/r beyond r=  1.4606
All V_l potentials equal beyond r=  1.4606
This should be close to max(r_c) in ps generation
All pots = -2*Zval/r beyond r=  1.4606

VLOCAL1: 99.0% of the norm of Vloc inside     20.347 Ry
VLOCAL1: 99.9% of the norm of Vloc inside     46.372 Ry
atom: Maximum radius for 4*pi*r*r*local-pseudopot. charge    1.76189
atom: Maximum radius for r*vlocal+2*Zval:    1.53550
GHOST: No ghost state for L =  0
GHOST: No ghost state for L =  1
GHOST: No ghost state for L =  2
GHOST: No ghost state for L =  3

KBgen: Kleinman-Bylander projectors: 
   l= 0   rc=  1.634559   el= -1.363963   Ekb=  5.296955   kbcos=  0.335621
   l= 1   rc=  1.614250   el= -0.521451   Ekb= -5.259161   kbcos= -0.433408
   l= 2   rc=  1.718383   el=  0.001991   Ekb= -1.271464   kbcos= -0.007566
   l= 3   rc=  1.761893   el=  0.003093   Ekb= -0.494769   kbcos= -0.001015

KBgen: Total number of  Kleinman-Bylander projectors:   16
atom: -------------------------------------------------------------------------

atom: SANKEY-TYPE ORBITALS:
atom: Selected multiple-zeta basis: split     

SPLIT: Orbitals with angular momentum L= 0

SPLIT: Basis orbitals for state 2s

SPLIT: PAO cut-off radius determined from an
SPLIT: energy shift=  0.007350 Ry

   izeta = 1
                 lambda =    1.000000
                     rc =    4.071465
                 energy =   -1.356470
                kinetic =    1.176977
    potential(screened) =   -2.533447
       potential(ionic) =   -8.057990

   izeta = 2
                 rmatch =    2.905100
              splitnorm =    0.150000
                 energy =   -1.158343
                kinetic =    1.813009
    potential(screened) =   -2.971352
       potential(ionic) =   -8.901931

SPLIT: Orbitals with angular momentum L= 1

SPLIT: Basis orbitals for state 2p

SPLIT: PAO cut-off radius determined from an
SPLIT: energy shift=  0.007350 Ry

   izeta = 1
                 lambda =    1.000000
                     rc =    4.972977
                 energy =   -0.513884
                kinetic =    3.441732
    potential(screened) =   -3.955616
       potential(ionic) =   -9.287901

   izeta = 2
                 rmatch =    3.054066
              splitnorm =    0.150000
                 energy =   -0.318226
                kinetic =    5.125348
    potential(screened) =   -5.443573
       potential(ionic) =  -11.380999

POLgen: Perturbative polarization orbital with L=  2

POLgen: Polarization orbital for state 2p

   izeta = 1
                     rc =    4.972977
                 energy =    1.607437
                kinetic =    3.268125
    potential(screened) =   -1.660688
       potential(ionic) =   -5.973652
atom: Total number of Sankey-type orbitals: 13

atm_pop: Valence configuration (for local Pseudopot. screening):
 2s( 2.00)                                                            
 2p( 3.00)                                                            
Vna: chval, zval:    5.00000   5.00000

Vna:  Cut-off radius for the neutral-atom potential:   4.972977
comcore: Pseudo-core radius Rcore=  1.554824

atom: _________________________________________________________________________

prinput: Basis input ----------------------------------------------------------

PAO.BasisType split     

%block ChemicalSpeciesLabel
    1    6 C                       # Species index, atomic number, species label
    2    7 N                       # Species index, atomic number, species label
%endblock ChemicalSpeciesLabel

%block PAO.Basis                 # Define Basis set
C                     2                    # Species label, number of l-shells
 n=2   0   2                         # n, l, Nzeta 
   4.633      3.432   
   1.000      1.000   
 n=2   1   2 P   1                   # n, l, Nzeta, Polarization, NzetaPol
   5.659      3.653   
   1.000      1.000   
N                     2                    # Species label, number of l-shells
 n=2   0   2                         # n, l, Nzeta 
   4.071      2.905   
   1.000      1.000   
 n=2   1   2 P   1                   # n, l, Nzeta, Polarization, NzetaPol
   4.973      3.054   
   1.000      1.000   
%endblock PAO.Basis

prinput: ----------------------------------------------------------------------

coor:   Atomic-coordinates input format  =     Cartesian coordinates
coor:                                          (in Angstroms)

siesta: Atomic coordinates (Bohr) and species
siesta:      2.23554   1.32097   0.00000  1        1
siesta:      4.56367   2.66461   0.00000  1        2
siesta:     32.50328  21.48508   0.00000  1        3
siesta:     34.83116  17.45226   0.00000  1        4
siesta:     37.15930  18.79590   0.00000  1        5
siesta:     32.50291  13.41944   0.00000  1        6
siesta:     34.83104  14.76308   0.00000  1        7
siesta:     30.17465   9.38661   0.00000  1        8
siesta:     32.50278  10.73026   0.00000  1        9
siesta:     27.84639   5.35379   0.00000  1       10
siesta:     30.17453   6.69743   0.00000  1       11
siesta:     27.84714  21.48508   0.00000  1       12
siesta:     30.17527  22.82873   0.00000  1       13
siesta:      6.89168   1.32097   0.00000  1       14
siesta:      9.21981   2.66461   0.00000  1       15
siesta:     13.87595   2.66461   0.00000  1       16
siesta:     16.20396   1.32097   0.00000  1       17
siesta:     18.53210   2.66461   0.00000  1       18
siesta:     23.19013   2.66461   0.00000  1       19
siesta:     25.51813   1.32097   0.00000  1       20
siesta:     27.84627   2.66461   0.00000  1       21
siesta:      6.89193   6.69743   0.00000  1       22
siesta:      9.21994   5.35379   0.00000  1       23
siesta:     11.54807   6.69743   0.00000  1       24
siesta:     13.87608   5.35379   0.00000  1       25
siesta:     16.20421   6.69743   0.00000  1       26
siesta:     18.53411   5.35379   0.00000  1       27
siesta:     20.86224   6.69743   0.00000  1       28
siesta:     23.19025   5.35379   0.00000  1       29
siesta:     25.51838   6.69743   0.00000  1       30
siesta:      9.22019  10.73026   0.00000  1       31
siesta:     11.54820   9.38661   0.00000  1       32
siesta:     13.87633  10.73026   0.00000  1       33
siesta:     18.53247  10.73026   0.00000  1       34
siesta:     20.86237   9.38661   0.00000  1       35
siesta:     23.19050  10.73026   0.00000  1       36
siesta:      9.22031  13.41944   0.00000  1       37
siesta:     11.54845  14.76308   0.00000  1       38
siesta:     13.87645  13.41944   0.00000  1       39
siesta:     16.20459  14.76308   0.00000  1       40
siesta:     18.53448  13.41944   0.00000  1       41
siesta:     20.86262  14.76308   0.00000  1       42
siesta:     13.87670  18.79590   0.00000  1       43
siesta:     16.20471  17.45226   0.00000  1       44
siesta:     18.53284  18.79590   0.00000  1       45
siesta:     13.87683  21.48508   0.00000  1       46
siesta:     16.20496  22.82873   0.00000  1       47
siesta:     18.53486  21.48508   0.00000  1       48
siesta:     20.86299  22.82873   0.00000  1       49
siesta:     27.84664  10.73026   0.00000  1       50
siesta:     23.19063  13.41944   0.00000  1       51
siesta:     25.51876  14.76308   0.00000  1       52
siesta:     23.19088  18.79590   0.00000  1       53
siesta:     27.84677  13.41944   0.00000  1       54
siesta:     30.17490  14.76308   0.00000  1       55
siesta:     25.51888  17.45226   0.00000  1       56
siesta:     27.84702  18.79590   0.00000  1       57
siesta:     23.19100  21.48508   0.00000  1       58
siesta:     25.51913  22.82873   0.00000  1       59
siesta:     30.17503  17.45226   0.00000  1       60
siesta:     32.50316  18.79590   0.00000  1       61
siesta:     37.16131  21.48508   0.00000  1       62
siesta:     39.48945  22.82873   0.00000  1       63
siesta:     34.83141  22.82873   0.00000  2       64
siesta:     11.54782   1.32097   0.00000  2       65
siesta:     20.86199   1.32097   0.00000  2       66
siesta:      4.56380   5.35379   0.00000  2       67
siesta:      6.89205   9.38661   0.00000  2       68
siesta:     16.20434   9.38661   0.00000  2       69
siesta:     11.54857  17.45226   0.00000  2       70
siesta:     25.51851   9.38661   0.00000  2       71
siesta:     20.86274  17.45226   0.00000  2       72

siesta: System type = slab      

initatomlists: Number of atoms, orbitals, and projectors:     72   936  1152

siesta: ******************** Simulation parameters ****************************
siesta:
siesta: The following are some of the parameters of the simulation.
siesta: A complete list of the parameters used, including default values,
siesta: can be found in file out.fdf
siesta:
redata: Non-Collinear-spin run           =     F
redata: SpinPolarized (Up/Down) run      =     F
redata: Number of spin components        =     1
redata: Long output                      =     F
redata: Number of Atomic Species         =        2
redata: Charge density info will appear in .RHO file
redata: Write Mulliken Pop.              =     NO
redata: Mesh Cutoff                      =   200.0000  Ry
redata: Net charge of the system         =     0.0000 |e|
redata: Max. number of SCF Iter          =      500
redata: SCF convergence failure will abort job
redata: Performing Pulay mixing using    =    10 iterations
redata: Mix DM in first SCF step ?       =     F
redata: Write Pulay info on disk?        =     F
redata: Discard 1st Pulay DM after  kick =     F
redata: New DM Mixing Weight             =     0.0500
redata: New DM Occupancy tolerance       = 0.000000000001
redata: No kicks to SCF
redata: DM Mixing Weight for Kicks       =     0.5000
redata: DM Tolerance for SCF             =     0.000100
redata: Require Energy convergence for SCF =     F
redata: DM Energy tolerance for SCF      =     0.000100 eV
redata: Require Harris convergence for SCF =     F
redata: DM Harris energy tolerance for SCF =     0.000100 eV
redata: Using Saved Data (generic)   =     F
redata: Use continuation files for DM    =     T
redata: Neglect nonoverlap interactions  =     F
redata: Method of Calculation            =     Diagonalization
redata: Divide and Conquer               =     T
redata: Electronic Temperature           =     0.0019  Ry
redata: Fix the spin of the system       =     F
redata: Dynamics option                  =     Verlet MD run
redata: Initial MD time step             =        1
redata:   Final MD time step             =        1
redata: Length of MD time step           =     1.0000  fs
redata: Initial Temperature of MD run    =     0.0000  K
redata: Perform a MD quench              =     F
redata: ***********************************************************************
Total number of electrons:   297.000000
Total ionic charge:   297.000000

* ProcessorY, Blocksize:    3  24

k-point displ. along   1 input, could be:     0.50    0.00
k-point displ. along   2 input, could be:     0.50    0.00
 Kpoints in:          231 . Kpoints trimmed:          231

siesta: k-grid: Number of k-points =   231
siesta: k-grid: Cutoff (effective) =     5.000 Ang
siesta: k-grid: Supercell and displacements
siesta: k-grid:   21   0   0      0.500
siesta: k-grid:    0  21   0      0.500
siesta: k-grid:    0   0   1      0.000
Naive supercell factors:     2    2    2

superc: Internal auxiliary supercell:     2 x     2 x     2  =       8
superc: Number of atoms, orbitals, and projectors:    576   7488   9216

* Maximum dynamic memory allocated =     4 MB

siesta:                 ==============================
                            Begin MD step =      1
                        ==============================

superc: Internal auxiliary supercell:     2 x     2 x     2  =       8
superc: Number of atoms, orbitals, and projectors:    576   7488   9216

outcell: Unit cell vectors (Ang):
       14.785000    0.000000    0.000000
        7.393000   12.805052    0.000000
        0.000000    0.000000   10.000000

outcell: Cell vector modules (Ang)   :   14.785000   14.786000   10.000000
outcell: Cell angles (23,13,12) (deg):     90.0000     90.0000     60.0000
outcell: Cell volume (Ang**3)        :   1893.2269
New_DM. Step:     1
Initializing Density Matrix...

iodm: Reading Density Matrix from files

InitMesh: MESH =   120 x   120 x    90 =     1296000
InitMesh: Mesh cutoff (required, used) =   200.000   223.865 Ry

* Maximum dynamic memory allocated =   134 MB

stepf: Fermi-Dirac step function

siesta: Program's energy decomposition (eV):
siesta: Ebs     =     -4185.483467
siesta: Eions   =     19849.732669
siesta: Ena     =      4064.280676
siesta: Ekin    =      8580.006941
siesta: Enl     =     -1058.262777
siesta: DEna    =      -247.492639
siesta: DUscf   =        22.672131
siesta: DUext   =         0.000000
siesta: Exc     =     -4250.302320
siesta: eta*DQ  =         0.000000
siesta: Emadel  =         0.000000
siesta: Emeta   =         0.000000
siesta: Emolmec =         0.000000
siesta: Ekinion =         0.000000
siesta: Eharris =    -12738.829700
siesta: Etot    =    -12738.830657
siesta: FreeEng =    -12738.830657

siesta: iscf   Eharris(eV)      E_KS(eV)   FreeEng(eV)   dDmax  Ef(eV)
siesta:    1   -12738.8297   -12738.8307   -12738.8307  0.0001 -3.4283
timer: Routine,Calls,Time,% = IterSCF        1    1184.475  98.96
elaps: Routine,Calls,Wall,% = IterSCF        1      98.948  98.96

siesta: E_KS(eV) =           -12738.8297

siesta: E_KS - E_eggbox =    -12738.8297

siesta: Atomic forces (eV/Ang):
----------------------------------------
   Tot    0.199391   -0.288178    0.000000
----------------------------------------
   Max    1.073537
   Res    0.329661    sqrt( Sum f_i^2 / 3N )
----------------------------------------
   Max    1.073537    constrained

Stress-tensor-Voigt (kbar):       -0.50       -0.10        0.14        0.11        0.00        0.00
(Free)E + p*V (eV/cell)   -12738.6935
Target enthalpy (eV/cell)   -12738.8742

siesta: Stress tensor (static) (eV/Ang**3):
        -0.000313    0.000068    0.000000
         0.000068   -0.000063    0.000000
         0.000000    0.000000    0.000090

siesta: Pressure (static):          0.15287713  kBar

siesta: Stress tensor (total) (eV/Ang**3):
        -0.000313    0.000068    0.000000
         0.000068   -0.000063    0.000000
         0.000000    0.000000    0.000090

siesta: Pressure (total):          0.15287713  kBar

siesta: Temp_ion =       0.000 K

* Maximum dynamic memory allocated =   227 MB

siesta: Program's energy decomposition (eV):
siesta: Ebs     =     -4185.483467
siesta: Eions   =     19849.732669
siesta: Ena     =      4064.280676
siesta: Ekin    =      8580.008753
siesta: Enl     =     -1058.262644
siesta: DEna    =      -247.493124
siesta: DUscf   =        22.671733
siesta: DUext   =         0.000000
siesta: Exc     =     -4250.302424
siesta: eta*DQ  =         0.000000
siesta: Emadel  =         0.000000
siesta: Emeta   =         0.000000
siesta: Emolmec =         0.000000
siesta: Ekinion =         0.000000
siesta: Eharris =    -12738.829700
siesta: Etot    =    -12738.829699
siesta: FreeEng =    -12738.874187

siesta: Final energy (eV):
siesta:  Band Struct. =   -4185.483467
siesta:       Kinetic =    8580.008753
siesta:       Hartree =   24803.519459
siesta:    Ext. field =       0.000000
siesta:   Exch.-corr. =   -4250.302424
siesta:  Ion-electron =  -57583.846095
siesta:       Ion-ion =   15711.790608
siesta:       Ekinion =       0.000000
siesta:         Total =  -12738.829699

siesta: Atomic forces (eV/Ang):
siesta:      1    0.331056    0.493243    0.000000
siesta:      2   -0.075647    0.550779    0.000000
siesta:      3   -0.344060    0.928668    0.000000
siesta:      4    0.242120   -1.073537    0.000000
siesta:      5    0.450177    0.506056    0.000000
siesta:      6    0.549939   -0.607943    0.000000
siesta:      7   -0.448935    0.869779    0.000000
siesta:      8    0.258715   -0.081178    0.000000
siesta:      9    0.264165    0.234370    0.000000
siesta:     10    0.638327    0.585209    0.000000
siesta:     11    0.397585   -1.025755    0.000000
siesta:     12    0.099827    0.478028    0.000000
siesta:     13    0.885261   -0.912065    0.000000
siesta:     14    0.467941   -0.000203    0.000000
siesta:     15    0.610028   -0.446139    0.000000
siesta:     16    0.051856   -0.645073    0.000000
siesta:     17   -0.064278    0.719537    0.000000
siesta:     18   -0.154031   -0.847717    0.000000
siesta:     19   -0.123014   -0.604823    0.000000
siesta:     20   -0.224260    0.174813    0.000000
siesta:     21   -0.656336   -0.127101    0.000000
siesta:     22   -0.574943   -0.118296    0.000000
siesta:     23   -0.199795    0.082751    0.000000
siesta:     24   -0.106386   -0.020053    0.000000
siesta:     25   -0.199607    0.417322    0.000000
siesta:     26   -0.111667   -0.112230    0.000000
siesta:     27    0.309976    0.202324    0.000000
siesta:     28   -0.085592    0.162174    0.000000
siesta:     29   -0.234736   -0.112636    0.000000
siesta:     30    0.148268    0.397719    0.000000
siesta:     31   -0.296053    0.065608    0.000000
siesta:     32    0.250779   -0.192650    0.000000
siesta:     33   -0.039773   -0.140157    0.000000
siesta:     34   -0.048006    0.025286    0.000000
siesta:     35   -0.212250   -0.480314    0.000000
siesta:     36    0.506268    0.104771    0.000000
siesta:     37    0.238033   -0.233906    0.000000
siesta:     38   -0.358433    0.314412    0.000000
siesta:     39    0.463609    0.111397    0.000000
siesta:     40   -0.020908   -0.068109    0.000000
siesta:     41   -0.438433   -0.049705    0.000000
siesta:     42    0.330587    0.415029    0.000000
siesta:     43   -0.278915   -0.086957    0.000000
siesta:     44   -0.040378   -0.279106    0.000000
siesta:     45    0.537005   -0.113449    0.000000
siesta:     46   -0.644307   -0.440975    0.000000
siesta:     47    0.195169   -0.172543    0.000000
siesta:     48    0.504164   -0.338481    0.000000
siesta:     49   -0.620318    0.332959    0.000000
siesta:     50   -0.420537   -0.768878    0.000000
siesta:     51   -0.201903   -0.112084    0.000000
siesta:     52    0.574128    0.188186    0.000000
siesta:     53   -0.577270   -0.109477    0.000000
siesta:     54   -0.607366    0.104872    0.000000
siesta:     55   -0.030685   -0.135185    0.000000
siesta:     56   -0.355100   -0.439222    0.000000
siesta:     57   -0.261986    0.106425    0.000000
siesta:     58    0.139948   -0.085790    0.000000
siesta:     59    0.086739    0.366250    0.000000
siesta:     60   -0.145224    0.046468    0.000000
siesta:     61    0.556403    0.648284    0.000000
siesta:     62   -0.134471    0.114508    0.000000
siesta:     63   -0.321096   -0.037867    0.000000
siesta:     64    0.171295   -0.837654    0.000000
siesta:     65   -0.183755    0.280775    0.000000
siesta:     66   -0.053378    0.850455    0.000000
siesta:     67    0.115884    0.942396    0.000000
siesta:     68   -0.256956   -0.530439    0.000000
siesta:     69    0.053732    0.060106    0.000000
siesta:     70    0.025959    0.069008    0.000000
siesta:     71   -0.042913    0.191663    0.000000
siesta:     72   -0.061849   -0.042115    0.000000
siesta: ----------------------------------------
siesta:    Tot    0.199391   -0.288178    0.000000

siesta: Stress tensor (static) (eV/Ang**3):
siesta:    -0.000313    0.000068    0.000000
siesta:     0.000068   -0.000063    0.000000
siesta:     0.000000    0.000000    0.000090

siesta: Cell volume =       1893.226895 Ang**3

siesta: Pressure (static):
siesta:                Solid            Molecule  Units
siesta:           0.00000104          0.00000720  Ry/Bohr**3
siesta:           0.00009542          0.00066092  eV/Ang**3
siesta:           0.15287713          1.05892214  kBar
(Free)E+ p_basis*V_orbitals  =      -12709.423241
(Free)Eharris+ p_basis*V_orbitals  =      -12709.422283

siesta: Electric dipole (a.u.)  =    0.000000    0.000000    0.000000
siesta: Electric dipole (Debye) =    0.000000    0.000000    0.000000

* Maximum dynamic memory allocated : Node    0 =   227 MB
* Maximum dynamic memory allocated : Node    1 =   143 MB
* Maximum dynamic memory allocated : Node    2 =   144 MB
* Maximum dynamic memory allocated : Node    3 =   217 MB
* Maximum dynamic memory allocated : Node    4 =   224 MB
* Maximum dynamic memory allocated : Node    5 =   139 MB
* Maximum dynamic memory allocated : Node    6 =   140 MB
* Maximum dynamic memory allocated : Node    7 =   218 MB
* Maximum dynamic memory allocated : Node    8 =   224 MB
* Maximum dynamic memory allocated : Node    9 =   139 MB
* Maximum dynamic memory allocated : Node   10 =   140 MB
* Maximum dynamic memory allocated : Node   11 =   218 MB

* Maximum memory occured during cdiag                         

timer: CPU execution times:
timer:  Routine       Calls   Time/call    Tot.time        %
timer:  siesta            1    1309.278    1309.278   100.00
timer:  Setup             1       3.407       3.407     0.26
timer:  bands             1       0.011       0.011     0.00
timer:  writewave         1       0.024       0.024     0.00
timer:  KSV_init          1       0.005       0.005     0.00
timer:  IterMD            1    1299.414    1299.414    99.25
timer:  hsparse           1       0.187       0.187     0.01
timer:  overlap           1       6.030       6.030     0.46
timer:  IterSCF           1    1184.475    1184.475    90.47
timer:  kinefsm           2       3.053       6.105     0.47
timer:  nlefsm            2      18.374      36.748     2.81
timer:  DHSCF             2      79.242     158.484    12.10
timer:  DHSCF1            1       0.896       0.896     0.07
timer:  DHSCF2            1      23.740      23.740     1.81
timer:  REORD            18       0.002       0.043     0.00
timer:  POISON            3       0.479       1.437     0.11
timer:  DHSCF3            2      56.488     112.977     8.63
timer:  rhoofd            2      11.326      22.652     1.73
timer:  cellXC            2       2.511       5.021     0.38
timer:  vmat              2      28.418      56.836     4.34
timer:  MolMec            2       0.000       0.000     0.00
timer:  diagon            1    1063.763    1063.763    81.25
timer:  cdiag            40      18.126     697.596    53.28
timer:  cdiag1           40       0.875      33.688     2.57
timer:  cdiag2           40       3.033     116.705     8.91
timer:  cdiag3           40      14.010     539.181    41.18
timer:  cdiag4           40       0.205       7.891     0.60
timer:  DHSCF4            1      20.823      20.823     1.59
timer:  dfscf             1      19.395      19.395     1.48
timer:  overfsm           1       0.266       0.266     0.02
timer:  optical           1       5.916       5.916     0.45
  

elaps: ELAPSED times:
elaps:  Routine       Calls   Time/call    Tot.time        %
elaps:  siesta            1     109.373     109.373   100.00
elaps:  Setup             1       0.285       0.285     0.26
elaps:  bands             1       0.001       0.001     0.00
elaps:  writewave         1       0.002       0.002     0.00
elaps:  KSV_init          1       0.000       0.000     0.00
elaps:  IterMD            1     108.549     108.549    99.25
elaps:  hsparse           1       0.018       0.018     0.02
elaps:  overlap           1       0.702       0.702     0.64
elaps:  IterSCF           1      98.948      98.948    90.47
elaps:  kinefsm           2       0.357       0.715     0.65
elaps:  nlefsm            2       1.518       3.036     2.78
elaps:  DHSCF             2       7.338      14.676    13.42
elaps:  DHSCF1            1       0.077       0.077     0.07
elaps:  DHSCF2            1       1.982       1.982     1.81
elaps:  REORD            18       0.000       0.005     0.00
elaps:  POISON            3       0.040       0.121     0.11
elaps:  DHSCF3            2       4.718       9.436     8.63
elaps:  rhoofd            2       1.674       3.348     3.06
elaps:  cellXC            2       0.209       0.419     0.38
elaps:  vmat              2       2.373       4.746     4.34
elaps:  MolMec            2       0.000       0.000     0.00
elaps:  diagon            1      88.864      88.864    81.25
elaps:  cdiag            40       1.468      58.701    53.67
elaps:  cdiag1           40       0.070       2.815     2.57
elaps:  cdiag2           40       0.244       9.740     8.91
elaps:  cdiag3           40       1.135      45.410    41.52
elaps:  cdiag4           40       0.018       0.726     0.66
elaps:  DHSCF4            1       3.176       3.176     2.90
elaps:  dfscf             1       2.991       2.991     2.73
elaps:  overfsm           1       0.027       0.027     0.02
elaps:  optical           1       0.000       0.000     0.00
  
>> End of run:   6-APR-2016  15:16:30
