Siesta Version:                                        siesta-3.2-pl-3
Architecture  : x86_64-unknown-linux-gnu--unknown
Compiler flags: mpiifort -g -O2 -fPIC -xSSE4.1 -fp-model source -shared-intel 
PARALLEL version

* Running on    8 nodes in parallel
>> Start of run:  20-APR-2016   5:10:05

                           ***********************       
                           *  WELCOME TO SIESTA  *       
                           ***********************       

reinit: Reading from standard input
************************** Dump of input data file ****************************
#(1) General system descriptors
SystemName            GRP_doping    # Descriptive name of the system
SystemLabel           GRP_doping    # Short name for naming files
%include STRUCT.fdf
%include KPT.fdf
%include BASIS.fdf
#%include TS.fdf # for transiesta calculation
#(4) DFT, Grid, SCF
XC.functional         GGA           # LDA or GGA (default = LDA)
XC.authors            PBE           # CA (Ceperley-Aldr) = PZ
                                    #    (Perdew-Zunger) - LDA - Default
                                    # PW92 (Perdew-Wang-92) - LDA
                                    # PBE (Perdew-Burke-Ernzerhof) - GGA
MeshCutoff            200.000000    Ry      # Default: 50.0 Ry ~ 0.444 Bohr
                                    #         100.0 Ry ~ 0.314 Bohr
MaxSCFIterations      500           # Default: 50
DM.MixingWeight       0.05          # Default: 0.25
DM.NumberPulay        10            # Default: 0
DM.PulayOnFile        F             # SystemLabel.P1, SystemLabel.P2
DM.Tolerance          1.d-4         # Default: 1.d-4
DM.UseSaveDM          .true.        # because of the bug
SCFMustConverge       .true.
NeglNonOverlapInt     F             # Default: F
#(5) Eigenvalue problem: order-N or diagonalization
SolutionMethod        Diagon        # or Transiesta
ElectronicTemperature 300.0 K       # Default: 300.0 K
#(6) Molecular dynamics and relaxations
#MD.TypeOfRun          CG            # Type of dynamics:
#MD.VariableCell       F
#MD.NumCGsteps         0           # 0 for single-point / 100 for gopt
#MD.MaxCGDispl         0.2 Bohr      # Default: 0.2 Bohr
#MD.MaxForceTol        0.02 eV/Ang   # Default: 0.04 eV/Ang
#MD.MaxStressTol       1.0 GPa       # Default: 1.0 GPa
# Geometry Constraints
#%block GeometryConstraints
#	position from 1 to 44
#%endblock GeometryConstraints
BandLinesScale   pi/a
%block BandLines
 1   0.00000000  0.00000000  0.00000000
50   0.00000000  0.07809418  0.00000000
50   0.04509075  0.07809242  0.00000000
20   0.00000000  0.00000000  0.00000000
%endblock BandLines
************************** End of input data file *****************************

reinit: -----------------------------------------------------------------------
reinit: System Name: GRP_doping
reinit: -----------------------------------------------------------------------
reinit: System Label: GRP_doping                                                  
reinit: -----------------------------------------------------------------------

initatom: Reading input for the pseudopotentials and atomic orbitals ----------
 Species number:            1  Label: B Atomic number:           5
 Species number:            2  Label: C Atomic number:           6
Ground state valence configuration:   2s02  2p01
Reading pseudopotential information in formatted form from B.psf

Valence configuration for pseudopotential generation:
2s( 2.00) rc: 1.74
2p( 1.00) rc: 1.74
3d( 0.00) rc: 1.74
4f( 0.00) rc: 1.74
Ground state valence configuration:   2s02  2p02
Reading pseudopotential information in formatted form from C.psf

Valence configuration for pseudopotential generation:
2s( 2.00) rc: 1.54
2p( 2.00) rc: 1.54
3d( 0.00) rc: 1.54
4f( 0.00) rc: 1.54
For B, standard SIESTA heuristics set lmxkb to 3
 (one more than the basis l, including polarization orbitals).
Use PS.lmax or PS.KBprojectors blocks to override.
For C, standard SIESTA heuristics set lmxkb to 3
 (one more than the basis l, including polarization orbitals).
Use PS.lmax or PS.KBprojectors blocks to override.

<basis_specs>
===============================================================================
B                    Z=   5    Mass=  10.810        Charge= 0.17977+309
Lmxo=1 Lmxkb= 3    BasisType=split      Semic=F
L=0  Nsemic=0  Cnfigmx=2
          n=1  nzeta=2  polorb=0
            splnorm:   0.15000    
               vcte:    0.0000    
               rinn:    0.0000    
                rcs:    0.0000      0.0000    
            lambdas:    1.0000      1.0000    
L=1  Nsemic=0  Cnfigmx=2
          n=1  nzeta=2  polorb=1
            splnorm:   0.15000    
               vcte:    0.0000    
               rinn:    0.0000    
                rcs:    0.0000      0.0000    
            lambdas:    1.0000      1.0000    
-------------------------------------------------------------------------------
L=0  Nkbl=1  erefs: 0.17977+309
L=1  Nkbl=1  erefs: 0.17977+309
L=2  Nkbl=1  erefs: 0.17977+309
L=3  Nkbl=1  erefs: 0.17977+309
===============================================================================
</basis_specs>

atom: Called for B                     (Z =   5)

read_vps: Pseudopotential generation method:
read_vps: ATM3      Troullier-Martins                       
Total valence charge:    3.00000

read_vps: Pseudopotential includes a core correction:
read_vps: Pseudo-core for xc-correction

xc_check: Exchange-correlation functional:
xc_check: GGA Perdew, Burke & Ernzerhof 1996
V l=0 = -2*Zval/r beyond r=  1.7165
V l=1 = -2*Zval/r beyond r=  1.7165
V l=2 = -2*Zval/r beyond r=  1.7165
V l=3 = -2*Zval/r beyond r=  1.6951
All V_l potentials equal beyond r=  1.7165
This should be close to max(r_c) in ps generation
All pots = -2*Zval/r beyond r=  1.7165

VLOCAL1: 99.0% of the norm of Vloc inside     14.733 Ry
VLOCAL1: 99.9% of the norm of Vloc inside     33.577 Ry
atom: Maximum radius for 4*pi*r*r*local-pseudopot. charge    2.04484
atom: Maximum radius for r*vlocal+2*Zval:    1.75994
GHOST: No ghost state for L =  0
GHOST: No ghost state for L =  1
GHOST: No ghost state for L =  2
GHOST: No ghost state for L =  3

KBgen: Kleinman-Bylander projectors: 
   l= 0   rc=  1.897051   el= -0.693730   Ekb=  4.595746   kbcos=  0.286105
   l= 1   rc=  1.920920   el= -0.265236   Ekb= -2.350715   kbcos= -0.315747
   l= 2   rc=  2.044840   el=  0.002055   Ekb= -0.690767   kbcos= -0.013822
   l= 3   rc=  2.149707   el=  0.003188   Ekb= -0.315358   kbcos= -0.002055

KBgen: Total number of  Kleinman-Bylander projectors:   16
atom: -------------------------------------------------------------------------

atom: SANKEY-TYPE ORBITALS:
atom: Selected multiple-zeta basis: split     

SPLIT: Orbitals with angular momentum L= 0

SPLIT: Basis orbitals for state 2s

SPLIT: PAO cut-off radius determined from an
SPLIT: energy shift=  0.007350 Ry

   izeta = 1
                 lambda =    1.000000
                     rc =    5.422032
                 energy =   -0.686029
                kinetic =    0.576707
    potential(screened) =   -1.262736
       potential(ionic) =   -3.271094

   izeta = 2
                 rmatch =    4.222573
              splitnorm =    0.150000
                 energy =   -0.602132
                kinetic =    0.858975
    potential(screened) =   -1.461107
       potential(ionic) =   -3.582536

SPLIT: Orbitals with angular momentum L= 1

SPLIT: Basis orbitals for state 2p

SPLIT: PAO cut-off radius determined from an
SPLIT: energy shift=  0.007350 Ry

   izeta = 1
                 lambda =    1.000000
                     rc =    6.790259
                 energy =   -0.258578
                kinetic =    1.481412
    potential(screened) =   -1.739989
       potential(ionic) =   -3.657461

   izeta = 2
                 rmatch =    4.608740
              splitnorm =    0.150000
                 energy =   -0.173757
                kinetic =    2.186690
    potential(screened) =   -2.360447
       potential(ionic) =   -4.464260

POLgen: Perturbative polarization orbital with L=  2

POLgen: Polarization orbital for state 2p

   izeta = 1
                     rc =    6.790259
                 energy =    0.684082
                kinetic =    1.471481
    potential(screened) =   -0.787399
       potential(ionic) =   -2.406985
atom: Total number of Sankey-type orbitals: 13

atm_pop: Valence configuration (for local Pseudopot. screening):
 2s( 2.00)                                                            
 2p( 1.00)                                                            
Vna: chval, zval:    3.00000   3.00000

Vna:  Cut-off radius for the neutral-atom potential:   6.790259
comcore: Pseudo-core radius Rcore=  2.122997

atom: _________________________________________________________________________

<basis_specs>
===============================================================================
C                    Z=   6    Mass=  12.010        Charge= 0.17977+309
Lmxo=1 Lmxkb= 3    BasisType=split      Semic=F
L=0  Nsemic=0  Cnfigmx=2
          n=1  nzeta=2  polorb=0
            splnorm:   0.15000    
               vcte:    0.0000    
               rinn:    0.0000    
                rcs:    0.0000      0.0000    
            lambdas:    1.0000      1.0000    
L=1  Nsemic=0  Cnfigmx=2
          n=1  nzeta=2  polorb=1
            splnorm:   0.15000    
               vcte:    0.0000    
               rinn:    0.0000    
                rcs:    0.0000      0.0000    
            lambdas:    1.0000      1.0000    
-------------------------------------------------------------------------------
L=0  Nkbl=1  erefs: 0.17977+309
L=1  Nkbl=1  erefs: 0.17977+309
L=2  Nkbl=1  erefs: 0.17977+309
L=3  Nkbl=1  erefs: 0.17977+309
===============================================================================
</basis_specs>

atom: Called for C                     (Z =   6)

read_vps: Pseudopotential generation method:
read_vps: ATM3      Troullier-Martins                       
Total valence charge:    4.00000

read_vps: Pseudopotential includes a core correction:
read_vps: Pseudo-core for xc-correction

xc_check: Exchange-correlation functional:
xc_check: GGA Perdew, Burke & Ernzerhof 1996
V l=0 = -2*Zval/r beyond r=  1.5227
V l=1 = -2*Zval/r beyond r=  1.5227
V l=2 = -2*Zval/r beyond r=  1.5227
V l=3 = -2*Zval/r beyond r=  1.5038
All V_l potentials equal beyond r=  1.5227
This should be close to max(r_c) in ps generation
All pots = -2*Zval/r beyond r=  1.5227

VLOCAL1: 99.0% of the norm of Vloc inside     18.722 Ry
VLOCAL1: 99.9% of the norm of Vloc inside     42.668 Ry
atom: Maximum radius for 4*pi*r*r*local-pseudopot. charge    1.83678
atom: Maximum radius for r*vlocal+2*Zval:    1.58088
GHOST: No ghost state for L =  0
GHOST: No ghost state for L =  1
GHOST: No ghost state for L =  2
GHOST: No ghost state for L =  3

KBgen: Kleinman-Bylander projectors: 
   l= 0   rc=  1.704034   el= -1.009801   Ekb=  5.335044   kbcos=  0.316824
   l= 1   rc=  1.704034   el= -0.388707   Ekb= -3.785862   kbcos= -0.366464
   l= 2   rc=  1.791422   el=  0.001971   Ekb= -0.970471   kbcos= -0.009212
   l= 3   rc=  1.859892   el=  0.003065   Ekb= -0.399525   kbcos= -0.001223

KBgen: Total number of  Kleinman-Bylander projectors:   16
atom: -------------------------------------------------------------------------

atom: SANKEY-TYPE ORBITALS:
atom: Selected multiple-zeta basis: split     

SPLIT: Orbitals with angular momentum L= 0

SPLIT: Basis orbitals for state 2s

SPLIT: PAO cut-off radius determined from an
SPLIT: energy shift=  0.007350 Ry

   izeta = 1
                 lambda =    1.000000
                     rc =    4.632753
                 energy =   -1.002270
                kinetic =    0.855760
    potential(screened) =   -1.858031
       potential(ionic) =   -5.417575

   izeta = 2
                 rmatch =    3.431921
              splitnorm =    0.150000
                 energy =   -0.867111
                kinetic =    1.300804
    potential(screened) =   -2.167915
       potential(ionic) =   -5.962684

SPLIT: Orbitals with angular momentum L= 1

SPLIT: Basis orbitals for state 2p

SPLIT: PAO cut-off radius determined from an
SPLIT: energy shift=  0.007350 Ry

   izeta = 1
                 lambda =    1.000000
                     rc =    5.658549
                 energy =   -0.381140
                kinetic =    2.399701
    potential(screened) =   -2.780841
       potential(ionic) =   -6.206085

   izeta = 2
                 rmatch =    3.653288
              splitnorm =    0.150000
                 energy =   -0.249149
                kinetic =    3.542762
    potential(screened) =   -3.791911
       potential(ionic) =   -7.581078

POLgen: Perturbative polarization orbital with L=  2

POLgen: Polarization orbital for state 2p

   izeta = 1
                     rc =    5.658549
                 energy =    1.109913
                kinetic =    2.304789
    potential(screened) =   -1.194876
       potential(ionic) =   -4.013592
atom: Total number of Sankey-type orbitals: 13

atm_pop: Valence configuration (for local Pseudopot. screening):
 2s( 2.00)                                                            
 2p( 2.00)                                                            
Vna: chval, zval:    4.00000   4.00000

Vna:  Cut-off radius for the neutral-atom potential:   5.658549
comcore: Pseudo-core radius Rcore=  1.791422

atom: _________________________________________________________________________

prinput: Basis input ----------------------------------------------------------

PAO.BasisType split     

%block ChemicalSpeciesLabel
    1    5 B                       # Species index, atomic number, species label
    2    6 C                       # Species index, atomic number, species label
%endblock ChemicalSpeciesLabel

%block PAO.Basis                 # Define Basis set
B                     2                    # Species label, number of l-shells
 n=2   0   2                         # n, l, Nzeta 
   5.422      4.223   
   1.000      1.000   
 n=2   1   2 P   1                   # n, l, Nzeta, Polarization, NzetaPol
   6.790      4.609   
   1.000      1.000   
C                     2                    # Species label, number of l-shells
 n=2   0   2                         # n, l, Nzeta 
   4.633      3.432   
   1.000      1.000   
 n=2   1   2 P   1                   # n, l, Nzeta, Polarization, NzetaPol
   5.659      3.653   
   1.000      1.000   
%endblock PAO.Basis

prinput: ----------------------------------------------------------------------

coor:   Atomic-coordinates input format  =     Fractional

siesta: Atomic coordinates (Bohr) and species
siesta:     -2.35420  38.89134   0.00000  1        1
siesta:      2.30256  38.89134   0.00000  1        2
siesta:      4.63094  34.85847   0.00000  1        3
siesta:      4.63094  37.54693   0.00000  1        4
siesta:     -4.68258  34.85847   0.00000  1        5
siesta:     -4.68258  37.54693   0.00000  1        6
siesta:      2.30256   9.31683   0.00000  1        7
siesta:      4.63094  10.66124   0.00000  1        8
siesta:      4.63094  13.34970   0.00000  1        9
siesta:      9.28770  18.72698   0.00000  1       10
siesta:     -2.35420   9.31683   0.00000  1       11
siesta:     -0.02582  10.66124   0.00000  1       12
siesta:     -0.02582  13.34970   0.00000  1       13
siesta:      2.30256  14.69411   0.00000  1       14
siesta:      4.63094  21.41544   0.00000  1       15
siesta:     -4.68258  10.66124   0.00000  1       16
siesta:     -4.68258  13.34970   0.00000  1       17
siesta:     -2.35420  14.69411   0.00000  1       18
siesta:      2.30256  22.75985   0.00000  1       19
siesta:     -2.35420  25.44831   0.00000  1       20
siesta:     -9.33934  29.48119   0.00000  1       21
siesta:     -4.68258  26.79272   0.00000  1       22
siesta:      2.30256  33.51406   0.00000  1       23
siesta:     -2.35420  33.51406   0.00000  1       24
siesta:     -0.02582  34.85847   0.00000  1       25
siesta:     -0.02582  37.54693   0.00000  1       26
siesta:     -0.02582   2.59549   0.00000  2       27
siesta:     -0.02582   5.28395   0.00000  2       28
siesta:     -2.35420  41.57980   0.00000  2       29
siesta:      2.30256  41.57980   0.00000  2       30
siesta:      6.95932  30.82560   0.00000  2       31
siesta:      6.95932  33.51406   0.00000  2       32
siesta:      9.28770  26.79272   0.00000  2       33
siesta:      9.28770  29.48119   0.00000  2       34
siesta:      2.30256   6.62836   0.00000  2       35
siesta:      6.95932  14.69411   0.00000  2       36
siesta:      6.95932  17.38257   0.00000  2       37
siesta:      9.28770  21.41544   0.00000  2       38
siesta:     11.61608  22.75985   0.00000  2       39
siesta:     11.61608  25.44831   0.00000  2       40
siesta:     -2.35420   6.62836   0.00000  2       41
siesta:      2.30256  17.38257   0.00000  2       42
siesta:      4.63094  18.72698   0.00000  2       43
siesta:      6.95932  22.75985   0.00000  2       44
siesta:      6.95932  25.44831   0.00000  2       45
siesta:     -2.35420  17.38257   0.00000  2       46
siesta:     -0.02582  18.72698   0.00000  2       47
siesta:     -0.02582  21.41544   0.00000  2       48
siesta:      2.30256  25.44831   0.00000  2       49
siesta:     -7.01096  14.69411   0.00000  2       50
siesta:     -7.01096  17.38257   0.00000  2       51
siesta:     -4.68258  18.72698   0.00000  2       52
siesta:     -4.68258  21.41544   0.00000  2       53
siesta:     -2.35420  22.75985   0.00000  2       54
siesta:     -9.33934  18.72698   0.00000  2       55
siesta:     -9.33934  21.41544   0.00000  2       56
siesta:     -7.01096  22.75985   0.00000  2       57
siesta:     -7.01096  25.44831   0.00000  2       58
siesta:    -11.66772  22.75985   0.00000  2       59
siesta:    -11.66772  25.44831   0.00000  2       60
siesta:     -9.33934  26.79272   0.00000  2       61
siesta:      4.63094  26.79272   0.00000  2       62
siesta:      4.63094  29.48119   0.00000  2       63
siesta:     -0.02582  26.79272   0.00000  2       64
siesta:     -0.02582  29.48119   0.00000  2       65
siesta:     -4.68258  29.48119   0.00000  2       66
siesta:      2.30256  30.82560   0.00000  2       67
siesta:     -2.35420  30.82560   0.00000  2       68
siesta:     -7.01096  30.82560   0.00000  2       69
siesta:     -7.01096  33.51406   0.00000  2       70
siesta:     -0.02582  42.92421   0.00000  2       71
siesta:     -0.02582  45.61267   0.00000  2       72

siesta: System type = slab      

initatomlists: Number of atoms, orbitals, and projectors:     72   936  1152

siesta: ******************** Simulation parameters ****************************
siesta:
siesta: The following are some of the parameters of the simulation.
siesta: A complete list of the parameters used, including default values,
siesta: can be found in file out.fdf
siesta:
redata: Non-Collinear-spin run           =     F
redata: SpinPolarized (Up/Down) run      =     F
redata: Number of spin components        =     1
redata: Long output                      =     F
redata: Number of Atomic Species         =        2
redata: Charge density info will appear in .RHO file
redata: Write Mulliken Pop.              =     NO
redata: Mesh Cutoff                      =   200.0000  Ry
redata: Net charge of the system         =     0.0000 |e|
redata: Max. number of SCF Iter          =      500
redata: SCF convergence failure will abort job
redata: Performing Pulay mixing using    =    10 iterations
redata: Mix DM in first SCF step ?       =     F
redata: Write Pulay info on disk?        =     F
redata: Discard 1st Pulay DM after  kick =     F
redata: New DM Mixing Weight             =     0.0500
redata: New DM Occupancy tolerance       = 0.000000000001
redata: No kicks to SCF
redata: DM Mixing Weight for Kicks       =     0.5000
redata: DM Tolerance for SCF             =     0.000100
redata: Require Energy convergence for SCF =     F
redata: DM Energy tolerance for SCF      =     0.000100 eV
redata: Require Harris convergence for SCF =     F
redata: DM Harris energy tolerance for SCF =     0.000100 eV
redata: Using Saved Data (generic)   =     F
redata: Use continuation files for DM    =     T
redata: Neglect nonoverlap interactions  =     F
redata: Method of Calculation            =     Diagonalization
redata: Divide and Conquer               =     T
redata: Electronic Temperature           =     0.0019  Ry
redata: Fix the spin of the system       =     F
redata: Dynamics option                  =     Verlet MD run
redata: Initial MD time step             =        1
redata:   Final MD time step             =        1
redata: Length of MD time step           =     1.0000  fs
redata: Initial Temperature of MD run    =     0.0000  K
redata: Perform a MD quench              =     F
redata: ***********************************************************************
Total number of electrons:   262.000000
Total ionic charge:   262.000000

* ProcessorY, Blocksize:    2  24

k-point displ. along   1 input, could be:     0.50    0.00
k-point displ. along   2 input, could be:     0.50    0.00
 Kpoints in:          231 . Kpoints trimmed:          231

siesta: k-grid: Number of k-points =   231
siesta: k-grid: Cutoff (effective) =     5.000 Ang
siesta: k-grid: Supercell and displacements
siesta: k-grid:   21   0   0      0.500
siesta: k-grid:    0  21   0      0.500
siesta: k-grid:    0   0   1      0.000
Naive supercell factors:     2    2    2

superc: Internal auxiliary supercell:     2 x     2 x     2  =       8
superc: Number of atoms, orbitals, and projectors:    576   7488   9216

* Maximum dynamic memory allocated =     4 MB

siesta:                 ==============================
                            Begin MD step =      1
                        ==============================

superc: Internal auxiliary supercell:     2 x     2 x     2  =       8
superc: Number of atoms, orbitals, and projectors:    576   7488   9216

outcell: Unit cell vectors (Ang):
       12.804619    7.392750    0.000000
        0.000000   14.785500    0.000000
        0.000000    0.000000   10.000000

outcell: Cell vector modules (Ang)   :   14.785500   14.785500   10.000000
outcell: Cell angles (23,13,12) (deg):     90.0000     90.0000     60.0000
outcell: Cell volume (Ang**3)        :   1893.2269
New_DM. Step:     1
Initializing Density Matrix...

InitMesh: MESH =   120 x   120 x    90 =     1296000
InitMesh: Mesh cutoff (required, used) =   200.000   223.865 Ry

* Maximum dynamic memory allocated =   240 MB

stepf: Fermi-Dirac step function

siesta: Program's energy decomposition (eV):
siesta: Ebs     =     -5338.561160
siesta: Eions   =     15073.536580
siesta: Ena     =      4081.247860
siesta: Ekin    =      5006.990805
siesta: Enl     =       867.477165
siesta: DEna    =        -0.000006
siesta: DUscf   =         0.000000
siesta: DUext   =         0.000000
siesta: Exc     =     -4187.136951
siesta: eta*DQ  =         0.000000
siesta: Emadel  =         0.000000
siesta: Emeta   =         0.000000
siesta: Emolmec =         0.000000
siesta: Ekinion =         0.000000
siesta: Eharris =     -9203.695134
siesta: Etot    =     -9304.957706
siesta: FreeEng =     -9304.957706

siesta: iscf   Eharris(eV)      E_KS(eV)   FreeEng(eV)   dDmax  Ef(eV)
siesta:    1    -9203.6951    -9304.9577    -9304.9577  8.7540 -8.5983
timer: Routine,Calls,Time,% = IterSCF        1    3545.452  99.67
elaps: Routine,Calls,Wall,% = IterSCF        1     444.102  99.66
siesta:    2   -17348.4888    -7819.7914    -7819.8235 17.2425-12.2871
siesta:    3    -9715.7310    -9054.9415    -9054.9937  2.7805 -4.1629
siesta:    4    -9367.0022    -9070.7379    -9070.7395  1.8371 -5.3657
siesta:    5    -9324.5655    -9067.7725    -9067.7817  1.7148 -5.2367
siesta:    6    -9206.8767    -9055.2509    -9055.2830  1.2859 -5.7754
siesta:    7    -9204.8223    -9046.5992    -9046.6488  1.2891 -5.7191
siesta:    8    -9071.3481    -8984.5888    -8984.6426  1.3354 -5.1083
siesta:    9    -9061.1695    -8987.2064    -8987.2794  1.1588 -5.0262
siesta:   10    -9061.1798    -8987.2065    -8987.2338  1.1589 -5.0264
siesta:   11    -9060.8457    -8986.7701    -8986.7975  1.1583 -5.0194
siesta:   12    -9045.7265    -9013.0558    -9013.0830  0.6226 -5.2264
siesta:   13    -9051.0313    -9020.3546    -9020.4012  0.9995 -5.1851
siesta:   14    -9049.9000    -9020.5145    -9020.5571  0.9977 -5.2446
siesta:   15    -9051.0149    -9033.2227    -9033.2892  1.0714 -5.1715
siesta:   16    -9050.8545    -9042.9184    -9042.9342  1.0750 -5.3335
siesta:   17    -9047.8214    -9045.2035    -9045.2693  0.9539 -5.3211
siesta:   18    -9043.4498    -9043.1854    -9043.2529  0.8941 -5.2907
siesta:   19    -9044.0068    -9038.7464    -9038.7899  0.5806 -5.2968
siesta:   20    -9042.1148    -9038.8399    -9038.8850  0.5494 -5.2577
siesta:   21    -9041.2951    -9040.5437    -9040.6148  0.4467 -5.2071
siesta:   22    -9040.4372    -9042.4564    -9042.5239  0.3627 -5.2619
siesta:   23    -9039.7951    -9042.8864    -9042.9632  0.3174 -5.2409
siesta:   24    -9039.7470    -9042.2779    -9042.3585  0.3148 -5.2423
siesta:   25    -9039.6816    -9041.4895    -9041.5604  0.5428 -5.2900
siesta:   26    -9039.6627    -9040.7789    -9040.8781  0.3005 -5.2547
siesta:   27    -9039.6713    -9033.3585    -9033.4273  0.3079 -5.2879
siesta:   28    -9039.6811    -9031.0932    -9031.1608  0.2951 -5.2776
siesta:   29    -9039.5657    -9030.7350    -9030.8090  0.2747 -5.2558
siesta:   30    -9039.5271    -9031.4923    -9031.5730  0.2656 -5.2630
siesta:   31    -9039.4770    -9032.9561    -9033.0332  0.2391 -5.2673
siesta:   32    -9039.4525    -9034.3603    -9034.4417  0.2148 -5.2923
siesta:   33    -9039.4391    -9034.9736    -9035.0583  0.1564 -5.3094
siesta:   34    -9039.4201    -9036.1970    -9036.2859  0.0661 -5.3218
siesta:   35    -9039.4298    -9037.3049    -9037.4106  0.1152 -5.3144
siesta:   36    -9039.4070    -9038.3351    -9038.4274  0.0564 -5.3053
siesta:   37    -9039.4016    -9039.1091    -9039.2119  0.0250 -5.3116
siesta:   38    -9039.3943    -9038.9948    -9039.1039  0.0187 -5.3097
siesta:   39    -9039.3914    -9039.3218    -9039.4305  0.0652 -5.3135
siesta:   40    -9039.3930    -9039.0216    -9039.1341  0.0127 -5.3101
siesta:   41    -9039.3925    -9038.9572    -9039.0657  0.0115 -5.3063
siesta:   42    -9039.3937    -9038.9328    -9039.0414  0.0062 -5.3051
siesta:   43    -9039.3941    -9039.0488    -9039.1559  0.0112 -5.3038
siesta:   44    -9039.3940    -9039.1710    -9039.2776  0.0100 -5.3034
siesta:   45    -9039.3931    -9039.3182    -9039.4249  0.0024 -5.3050
siesta:   46    -9039.3931    -9039.3570    -9039.4645  0.0026 -5.3059
siesta:   47    -9039.3934    -9039.3542    -9039.4616  0.0058 -5.3051
siesta:   48    -9039.3932    -9039.3904    -9039.4976  0.0036 -5.3052
siesta:   49    -9039.3928    -9039.4170    -9039.5243  0.0017 -5.3053
siesta:   50    -9039.3930    -9039.4104    -9039.5182  0.0004 -5.3049
siesta:   51    -9039.3930    -9039.4038    -9039.5113  0.0005 -5.3050
siesta:   52    -9039.3929    -9039.4005    -9039.5081  0.0005 -5.3050
siesta:   53    -9039.3930    -9039.3926    -9039.5002  0.0007 -5.3050
siesta:   54    -9039.3930    -9039.3913    -9039.4988  0.0007 -5.3050
siesta:   55    -9039.3930    -9039.3966    -9039.5041  0.0002 -5.3050
siesta:   56    -9039.3930    -9039.3957    -9039.5032  0.0004 -5.3050
siesta:   57    -9039.3930    -9039.3965    -9039.5041  0.0002 -5.3051
siesta:   58    -9039.3930    -9039.3975    -9039.5050  0.0001 -5.3051
siesta:   59    -9039.3930    -9039.3973    -9039.5049  0.0002 -5.3051
siesta:   60    -9039.3930    -9039.3937    -9039.5013  0.0001 -5.3051
siesta:   61    -9039.3930    -9039.3927    -9039.5003  0.0000 -5.3051

siesta: E_KS(eV) =            -9039.3920

siesta: E_KS - E_eggbox =     -9039.3920

siesta: Atomic forces (eV/Ang):
----------------------------------------
   Tot   -0.243177   -0.257698    0.000000
----------------------------------------
   Max  559.061184
   Res  120.363141    sqrt( Sum f_i^2 / 3N )
----------------------------------------
   Max  559.061184    constrained

Stress-tensor-Voigt (kbar):     -587.95    -2207.69       -0.72       -6.30        0.00        0.00
(Free)E + p*V (eV/cell)    -7938.0643
Target enthalpy (eV/cell)    -9039.4996

siesta: Stress tensor (static) (eV/Ang**3):
        -0.366963   -0.003933    0.000000
        -0.003933   -1.377918    0.000000
         0.000000    0.000000   -0.000450

siesta: Pressure (static):        932.11906904  kBar

siesta: Stress tensor (total) (eV/Ang**3):
        -0.366963   -0.003933    0.000000
        -0.003933   -1.377918    0.000000
         0.000000    0.000000   -0.000450

siesta: Pressure (total):        932.11906904  kBar

siesta: Temp_ion =       0.000 K

* Maximum dynamic memory allocated =   259 MB
Computing bands...

siesta: Program's energy decomposition (eV):
siesta: Ebs     =     -4048.766997
siesta: Eions   =     15073.536580
siesta: Ena     =      4081.247860
siesta: Ekin    =      7603.298992
siesta: Enl     =      -746.409469
siesta: DEna    =      -659.630819
siesta: DUscf   =        86.982602
siesta: DUext   =         0.000000
siesta: Exc     =     -4331.344606
siesta: eta*DQ  =         0.000000
siesta: Emadel  =         0.000000
siesta: Emeta   =         0.000000
siesta: Emolmec =         0.000000
siesta: Ekinion =         0.000000
siesta: Eharris =     -9039.392973
siesta: Etot    =     -9039.392020
siesta: FreeEng =     -9039.499582

siesta: Final energy (eV):
siesta:  Band Struct. =   -4048.766997
siesta:       Kinetic =    7603.298992
siesta:       Hartree =   23818.069050
siesta:    Ext. field =       0.000000
siesta:   Exch.-corr. =   -4331.344606
siesta:  Ion-electron =  -55040.538375
siesta:       Ion-ion =   18911.122919
siesta:       Ekinion =       0.000000
siesta:         Total =   -9039.392020

siesta: Atomic forces (eV/Ang):
siesta:      1   -0.469531   98.898773    0.000000
siesta:      2    0.430869   98.868534    0.000000
siesta:      3   18.224505   -3.044092    0.000000
siesta:      4   21.206260 -288.162654    0.000000
siesta:      5  -18.129161   -2.688585    0.000000
siesta:      6  -21.285067 -288.249453    0.000000
siesta:      7    0.467526  -98.899227    0.000000
siesta:      8   21.279019  288.195877    0.000000
siesta:      9   18.094274    2.681918    0.000000
siesta:     10    1.233591   -1.689130    0.000000
siesta:     11   -0.447237  -98.841937    0.000000
siesta:     12   -0.053903  287.338703    0.000000
siesta:     13    0.072288 -108.073393    0.000000
siesta:     14   15.509083  404.544821    0.000000
siesta:     15    3.264346   -1.883222    0.000000
siesta:     16  -21.195751  288.084643    0.000000
siesta:     17  -18.255910    3.040103    0.000000
siesta:     18  -16.076485  403.884676    0.000000
siesta:     19   -3.728554    1.039654    0.000000
siesta:     20    3.723506   -1.057913    0.000000
siesta:     21   -1.239462    1.678640    0.000000
siesta:     22   -3.270421    1.878966    0.000000
siesta:     23   16.083631 -403.933237    0.000000
siesta:     24  -15.500362 -404.512006    0.000000
siesta:     25   -0.089339  108.096617    0.000000
siesta:     26   -0.000033 -287.352139    0.000000
siesta:     27   -0.207981  550.598618    0.000000
siesta:     28    0.168804 -126.425541    0.000000
siesta:     29  -12.546343 -401.090115    0.000000
siesta:     30   13.064796 -402.085044    0.000000
siesta:     31    2.325117    1.195727    0.000000
siesta:     32    0.547018   -0.113172    0.000000
siesta:     33    2.794693    1.751789    0.000000
siesta:     34   -0.844466    0.018897    0.000000
siesta:     35   12.554082  401.032841    0.000000
siesta:     36    1.266443    0.647792    0.000000
siesta:     37   -1.299398   -3.831912    0.000000
siesta:     38    3.492109    2.097242    0.000000
siesta:     39   -0.135350    6.051746    0.000000
siesta:     40    0.169398   -5.544673    0.000000
siesta:     41  -13.077154  402.087904    0.000000
siesta:     42   23.240592   -4.832164    0.000000
siesta:     43   -1.309334   -1.542377    0.000000
siesta:     44    2.906722    2.591961    0.000000
siesta:     45    0.086179   -1.273968    0.000000
siesta:     46  -22.933140   -5.105335    0.000000
siesta:     47   -0.109515  559.051997    0.000000
siesta:     48   -3.425228   -0.351903    0.000000
siesta:     49   -1.143067    4.544932    0.000000
siesta:     50   -0.557690    0.096539    0.000000
siesta:     51   -2.312505   -1.192508    0.000000
siesta:     52    0.985862    3.155874    0.000000
siesta:     53   -0.250909   -1.087917    0.000000
siesta:     54    1.149378   -4.561047    0.000000
siesta:     55    0.845445   -0.011226    0.000000
siesta:     56   -2.795758   -1.744223    0.000000
siesta:     57   -0.096059    1.279156    0.000000
siesta:     58   -2.916960   -2.598475    0.000000
siesta:     59   -0.159469    5.547229    0.000000
siesta:     60    0.149612   -6.053602    0.000000
siesta:     61   -3.488538   -2.108040    0.000000
siesta:     62    0.245419    1.079651    0.000000
siesta:     63   -1.018807   -3.090789    0.000000
siesta:     64    3.390638    0.361619    0.000000
siesta:     65    0.132665 -559.061184    0.000000
siesta:     66    1.307013    1.493686    0.000000
siesta:     67   22.897074    5.094849    0.000000
siesta:     68  -23.287652    4.838568    0.000000
siesta:     69    1.304108    3.823934    0.000000
siesta:     70   -1.272856   -0.633608    0.000000
siesta:     71   -0.134972  126.392044    0.000000
siesta:     72    0.209126 -550.598404    0.000000
siesta: ----------------------------------------
siesta:    Tot   -0.243177   -0.257698    0.000000

siesta: Stress tensor (static) (eV/Ang**3):
siesta:    -0.366963   -0.003933    0.000000
siesta:    -0.003933   -1.377918    0.000000
siesta:     0.000000    0.000000   -0.000450

siesta: Cell volume =       1893.226884 Ang**3

siesta: Pressure (static):
siesta:                Solid            Molecule  Units
siesta:           0.00633629          0.08935176  Ry/Bohr**3
siesta:           0.58177667          8.20397432  eV/Ang**3
siesta:         932.11906904      13144.35804436  kBar
(Free)E+ p_basis*V_orbitals  =       -9000.547177
(Free)Eharris+ p_basis*V_orbitals  =       -9000.547452

siesta: Electric dipole (a.u.)  =    0.000000    0.000000    0.000000
siesta: Electric dipole (Debye) =    0.000000    0.000000    0.000000

* Maximum dynamic memory allocated : Node    0 =   259 MB
* Maximum dynamic memory allocated : Node    1 =    91 MB
* Maximum dynamic memory allocated : Node    2 =    95 MB
* Maximum dynamic memory allocated : Node    3 =   245 MB
* Maximum dynamic memory allocated : Node    4 =   227 MB
* Maximum dynamic memory allocated : Node    5 =    84 MB
* Maximum dynamic memory allocated : Node    6 =    86 MB
* Maximum dynamic memory allocated : Node    7 =   209 MB

* Maximum memory occured during matrixMtoO                    

timer: CPU execution times:
timer:  Routine       Calls   Time/call    Tot.time        %
timer:  siesta            1  211803.704  211803.704   100.00
timer:  Setup             1       3.856       3.856     0.00
timer:  bands             3     244.260     732.779     0.35
timer:  writewave         1       0.045       0.045     0.00
timer:  KSV_init          1       0.007       0.007     0.00
timer:  IterMD            1  211061.799  211061.799    99.65
timer:  hsparse           1       0.514       0.514     0.00
timer:  overlap           1       7.208       7.208     0.00
timer:  IterSCF          61    3456.121  210823.376    99.54
timer:  kinefsm           2       3.760       7.521     0.00
timer:  nlefsm            2      20.924      41.847     0.02
timer:  DHSCF            62     123.529    7658.798     3.62
timer:  DHSCF1            1       0.991       0.991     0.00
timer:  DHSCF2            1      44.615      44.615     0.02
timer:  REORD           498       0.005       2.492     0.00
timer:  POISON           63       0.884      55.719     0.03
timer:  DHSCF3           62     122.069    7568.265     3.57
timer:  rhoofd           62      26.084    1617.215     0.76
timer:  cellXC           62       3.339     207.001     0.10
timer:  vmat             62      57.233    3548.453     1.68
timer:  MolMec            2       0.000       0.000     0.00
timer:  diagon           61    3331.508  203221.967    95.95
timer:  c-eigval      14212       6.044   85899.976    40.56
timer:  c-buildHS     14212       0.054     762.722     0.36
timer:  cdiag         28303       6.178  174850.453    82.55
timer:  cdiag1        28303       0.386   10913.377     5.15
timer:  cdiag2        28303       1.772   50151.823    23.68
timer:  cdiag3        28303       3.742  105919.646    50.01
timer:  cdiag4        28303       0.155    4388.854     2.07
timer:  c-eigvec      14091       6.412   90345.081    42.66
timer:  c-buildD      14091       1.961   27638.040    13.05
timer:  DHSCF4            1      43.734      43.734     0.02
timer:  dfscf             1      40.891      40.891     0.02
timer:  overfsm           1       0.463       0.463     0.00
timer:  optical           1       4.643       4.643     0.00
  

elaps: ELAPSED times:
elaps:  Routine       Calls   Time/call    Tot.time        %
elaps:  siesta            1   26525.484   26525.484   100.00
elaps:  Setup             1       0.501       0.501     0.00
elaps:  bands             3      30.610      91.829     0.35
elaps:  writewave         1       0.006       0.006     0.00
elaps:  KSV_init          1       0.001       0.001     0.00
elaps:  IterMD            1   26432.547   26432.547    99.65
elaps:  hsparse           1       0.067       0.067     0.00
elaps:  overlap           1       0.901       0.901     0.00
elaps:  IterSCF          61     432.833   26402.828    99.54
elaps:  kinefsm           2       0.470       0.940     0.00
elaps:  nlefsm            2       2.661       5.322     0.02
elaps:  DHSCF            62      15.568     965.186     3.64
elaps:  DHSCF1            1       0.126       0.126     0.00
elaps:  DHSCF2            1       5.585       5.585     0.02
elaps:  REORD           498       0.001       0.331     0.00
elaps:  POISON           63       0.111       6.979     0.03
elaps:  DHSCF3           62      15.288     947.832     3.57
elaps:  rhoofd           62       7.566     469.123     1.77
elaps:  cellXC           62       0.418      25.910     0.10
elaps:  vmat             62       7.168     444.402     1.68
elaps:  MolMec            2       0.000       0.000     0.00
elaps:  diagon           61     417.216   25450.148    95.95
elaps:  c-eigval      14212       0.757   10757.426    40.56
elaps:  c-buildHS     14212       0.007     102.864     0.39
elaps:  cdiag         28303       0.773   21878.867    82.48
elaps:  cdiag1        28303       0.048    1363.971     5.14
elaps:  cdiag2        28303       0.222    6281.786    23.68
elaps:  cdiag3        28303       0.469   13282.655    50.08
elaps:  cdiag4        28303       0.019     541.893     2.04
elaps:  c-eigvec      14091       0.803   11313.259    42.65
elaps:  c-buildD      14091       0.246    3461.499    13.05
elaps:  DHSCF4            1      11.496      11.496     0.04
elaps:  dfscf             1      10.915      10.915     0.04
elaps:  overfsm           1       0.057       0.057     0.00
elaps:  optical           1       0.001       0.001     0.00
  
>> End of run:  20-APR-2016  12:32:11
