Siesta Version:                                        siesta-3.2-pl-3
Architecture  : x86_64-unknown-linux-gnu--unknown
Compiler flags: mpiifort -g -O2 -fPIC -xSSE4.1 -fp-model source -shared-intel 
PARALLEL version

* Running on    8 nodes in parallel
>> Start of run:  27-APR-2016   9:25:54

                           ***********************       
                           *  WELCOME TO SIESTA  *       
                           ***********************       

reinit: Reading from standard input
************************** Dump of input data file ****************************
#(1) General system descriptors
SystemName            GRP_doping    # Descriptive name of the system
SystemLabel           GRP_doping    # Short name for naming files
%include STRUCT.fdf
%include KPT.fdf
%include BASIS.fdf
#%include TS.fdf # for transiesta calculation
#(4) DFT, Grid, SCF
XC.functional         GGA           # LDA or GGA (default = LDA)
XC.authors            PBE           # CA (Ceperley-Aldr) = PZ
                                    #    (Perdew-Zunger) - LDA - Default
                                    # PW92 (Perdew-Wang-92) - LDA
                                    # PBE (Perdew-Burke-Ernzerhof) - GGA
MeshCutoff            200.000000    Ry      # Default: 50.0 Ry ~ 0.444 Bohr
                                    #         100.0 Ry ~ 0.314 Bohr
MaxSCFIterations      500           # Default: 50
DM.MixingWeight       0.05          # Default: 0.25
DM.NumberPulay        10            # Default: 0
DM.PulayOnFile        F             # SystemLabel.P1, SystemLabel.P2
DM.Tolerance          1.d-4         # Default: 1.d-4
DM.UseSaveDM          .true.        # because of the bug
SCFMustConverge       .true.
NeglNonOverlapInt     F             # Default: F
#(5) Eigenvalue problem: order-N or diagonalization
SolutionMethod        Diagon        # or Transiesta
ElectronicTemperature 300.0 K       # Default: 300.0 K
#(6) Molecular dynamics and relaxations
#MD.TypeOfRun          CG            # Type of dynamics:
#MD.VariableCell       F
#MD.NumCGsteps         0           # 0 for single-point / 100 for gopt
#MD.MaxCGDispl         0.2 Bohr      # Default: 0.2 Bohr
#MD.MaxForceTol        0.02 eV/Ang   # Default: 0.04 eV/Ang
#MD.MaxStressTol       1.0 GPa       # Default: 1.0 GPa
# Geometry Constraints
#%block GeometryConstraints
#	position from 1 to 44
#%endblock GeometryConstraints
BandLinesScale   pi/a
%block BandLines
 1   0.00000000  0.00000000  0.00000000
50   0.00000000  0.07809418  0.00000000
50   0.04509075  0.07809242  0.00000000
20   0.00000000  0.00000000  0.00000000
%endblock BandLines
************************** End of input data file *****************************

reinit: -----------------------------------------------------------------------
reinit: System Name: GRP_doping
reinit: -----------------------------------------------------------------------
reinit: System Label: GRP_doping                                                  
reinit: -----------------------------------------------------------------------

initatom: Reading input for the pseudopotentials and atomic orbitals ----------
 Species number:            1  Label: B Atomic number:           5
 Species number:            2  Label: C Atomic number:           6
Ground state valence configuration:   2s02  2p01
Reading pseudopotential information in formatted form from B.psf

Valence configuration for pseudopotential generation:
2s( 2.00) rc: 1.74
2p( 1.00) rc: 1.74
3d( 0.00) rc: 1.74
4f( 0.00) rc: 1.74
Ground state valence configuration:   2s02  2p02
Reading pseudopotential information in formatted form from C.psf

Valence configuration for pseudopotential generation:
2s( 2.00) rc: 1.54
2p( 2.00) rc: 1.54
3d( 0.00) rc: 1.54
4f( 0.00) rc: 1.54
For B, standard SIESTA heuristics set lmxkb to 3
 (one more than the basis l, including polarization orbitals).
Use PS.lmax or PS.KBprojectors blocks to override.
For C, standard SIESTA heuristics set lmxkb to 3
 (one more than the basis l, including polarization orbitals).
Use PS.lmax or PS.KBprojectors blocks to override.

<basis_specs>
===============================================================================
B                    Z=   5    Mass=  10.810        Charge= 0.17977+309
Lmxo=1 Lmxkb= 3    BasisType=split      Semic=F
L=0  Nsemic=0  Cnfigmx=2
          n=1  nzeta=2  polorb=0
            splnorm:   0.15000    
               vcte:    0.0000    
               rinn:    0.0000    
                rcs:    0.0000      0.0000    
            lambdas:    1.0000      1.0000    
L=1  Nsemic=0  Cnfigmx=2
          n=1  nzeta=2  polorb=1
            splnorm:   0.15000    
               vcte:    0.0000    
               rinn:    0.0000    
                rcs:    0.0000      0.0000    
            lambdas:    1.0000      1.0000    
-------------------------------------------------------------------------------
L=0  Nkbl=1  erefs: 0.17977+309
L=1  Nkbl=1  erefs: 0.17977+309
L=2  Nkbl=1  erefs: 0.17977+309
L=3  Nkbl=1  erefs: 0.17977+309
===============================================================================
</basis_specs>

atom: Called for B                     (Z =   5)

read_vps: Pseudopotential generation method:
read_vps: ATM3      Troullier-Martins                       
Total valence charge:    3.00000

read_vps: Pseudopotential includes a core correction:
read_vps: Pseudo-core for xc-correction

xc_check: Exchange-correlation functional:
xc_check: GGA Perdew, Burke & Ernzerhof 1996
V l=0 = -2*Zval/r beyond r=  1.7165
V l=1 = -2*Zval/r beyond r=  1.7165
V l=2 = -2*Zval/r beyond r=  1.7165
V l=3 = -2*Zval/r beyond r=  1.6951
All V_l potentials equal beyond r=  1.7165
This should be close to max(r_c) in ps generation
All pots = -2*Zval/r beyond r=  1.7165

VLOCAL1: 99.0% of the norm of Vloc inside     14.733 Ry
VLOCAL1: 99.9% of the norm of Vloc inside     33.577 Ry
atom: Maximum radius for 4*pi*r*r*local-pseudopot. charge    2.04484
atom: Maximum radius for r*vlocal+2*Zval:    1.75994
GHOST: No ghost state for L =  0
GHOST: No ghost state for L =  1
GHOST: No ghost state for L =  2
GHOST: No ghost state for L =  3

KBgen: Kleinman-Bylander projectors: 
   l= 0   rc=  1.897051   el= -0.693730   Ekb=  4.595746   kbcos=  0.286105
   l= 1   rc=  1.920920   el= -0.265236   Ekb= -2.350715   kbcos= -0.315747
   l= 2   rc=  2.044840   el=  0.002055   Ekb= -0.690767   kbcos= -0.013822
   l= 3   rc=  2.149707   el=  0.003188   Ekb= -0.315358   kbcos= -0.002055

KBgen: Total number of  Kleinman-Bylander projectors:   16
atom: -------------------------------------------------------------------------

atom: SANKEY-TYPE ORBITALS:
atom: Selected multiple-zeta basis: split     

SPLIT: Orbitals with angular momentum L= 0

SPLIT: Basis orbitals for state 2s

SPLIT: PAO cut-off radius determined from an
SPLIT: energy shift=  0.007350 Ry

   izeta = 1
                 lambda =    1.000000
                     rc =    5.422032
                 energy =   -0.686029
                kinetic =    0.576707
    potential(screened) =   -1.262736
       potential(ionic) =   -3.271094

   izeta = 2
                 rmatch =    4.222573
              splitnorm =    0.150000
                 energy =   -0.602132
                kinetic =    0.858975
    potential(screened) =   -1.461107
       potential(ionic) =   -3.582536

SPLIT: Orbitals with angular momentum L= 1

SPLIT: Basis orbitals for state 2p

SPLIT: PAO cut-off radius determined from an
SPLIT: energy shift=  0.007350 Ry

   izeta = 1
                 lambda =    1.000000
                     rc =    6.790259
                 energy =   -0.258578
                kinetic =    1.481412
    potential(screened) =   -1.739989
       potential(ionic) =   -3.657461

   izeta = 2
                 rmatch =    4.608740
              splitnorm =    0.150000
                 energy =   -0.173757
                kinetic =    2.186690
    potential(screened) =   -2.360447
       potential(ionic) =   -4.464260

POLgen: Perturbative polarization orbital with L=  2

POLgen: Polarization orbital for state 2p

   izeta = 1
                     rc =    6.790259
                 energy =    0.684082
                kinetic =    1.471481
    potential(screened) =   -0.787399
       potential(ionic) =   -2.406985
atom: Total number of Sankey-type orbitals: 13

atm_pop: Valence configuration (for local Pseudopot. screening):
 2s( 2.00)                                                            
 2p( 1.00)                                                            
Vna: chval, zval:    3.00000   3.00000

Vna:  Cut-off radius for the neutral-atom potential:   6.790259
comcore: Pseudo-core radius Rcore=  2.122997

atom: _________________________________________________________________________

<basis_specs>
===============================================================================
C                    Z=   6    Mass=  12.010        Charge= 0.17977+309
Lmxo=1 Lmxkb= 3    BasisType=split      Semic=F
L=0  Nsemic=0  Cnfigmx=2
          n=1  nzeta=2  polorb=0
            splnorm:   0.15000    
               vcte:    0.0000    
               rinn:    0.0000    
                rcs:    0.0000      0.0000    
            lambdas:    1.0000      1.0000    
L=1  Nsemic=0  Cnfigmx=2
          n=1  nzeta=2  polorb=1
            splnorm:   0.15000    
               vcte:    0.0000    
               rinn:    0.0000    
                rcs:    0.0000      0.0000    
            lambdas:    1.0000      1.0000    
-------------------------------------------------------------------------------
L=0  Nkbl=1  erefs: 0.17977+309
L=1  Nkbl=1  erefs: 0.17977+309
L=2  Nkbl=1  erefs: 0.17977+309
L=3  Nkbl=1  erefs: 0.17977+309
===============================================================================
</basis_specs>

atom: Called for C                     (Z =   6)

read_vps: Pseudopotential generation method:
read_vps: ATM3      Troullier-Martins                       
Total valence charge:    4.00000

read_vps: Pseudopotential includes a core correction:
read_vps: Pseudo-core for xc-correction

xc_check: Exchange-correlation functional:
xc_check: GGA Perdew, Burke & Ernzerhof 1996
V l=0 = -2*Zval/r beyond r=  1.5227
V l=1 = -2*Zval/r beyond r=  1.5227
V l=2 = -2*Zval/r beyond r=  1.5227
V l=3 = -2*Zval/r beyond r=  1.5038
All V_l potentials equal beyond r=  1.5227
This should be close to max(r_c) in ps generation
All pots = -2*Zval/r beyond r=  1.5227

VLOCAL1: 99.0% of the norm of Vloc inside     18.722 Ry
VLOCAL1: 99.9% of the norm of Vloc inside     42.668 Ry
atom: Maximum radius for 4*pi*r*r*local-pseudopot. charge    1.83678
atom: Maximum radius for r*vlocal+2*Zval:    1.58088
GHOST: No ghost state for L =  0
GHOST: No ghost state for L =  1
GHOST: No ghost state for L =  2
GHOST: No ghost state for L =  3

KBgen: Kleinman-Bylander projectors: 
   l= 0   rc=  1.704034   el= -1.009801   Ekb=  5.335044   kbcos=  0.316824
   l= 1   rc=  1.704034   el= -0.388707   Ekb= -3.785862   kbcos= -0.366464
   l= 2   rc=  1.791422   el=  0.001971   Ekb= -0.970471   kbcos= -0.009212
   l= 3   rc=  1.859892   el=  0.003065   Ekb= -0.399525   kbcos= -0.001223

KBgen: Total number of  Kleinman-Bylander projectors:   16
atom: -------------------------------------------------------------------------

atom: SANKEY-TYPE ORBITALS:
atom: Selected multiple-zeta basis: split     

SPLIT: Orbitals with angular momentum L= 0

SPLIT: Basis orbitals for state 2s

SPLIT: PAO cut-off radius determined from an
SPLIT: energy shift=  0.007350 Ry

   izeta = 1
                 lambda =    1.000000
                     rc =    4.632753
                 energy =   -1.002270
                kinetic =    0.855760
    potential(screened) =   -1.858031
       potential(ionic) =   -5.417575

   izeta = 2
                 rmatch =    3.431921
              splitnorm =    0.150000
                 energy =   -0.867111
                kinetic =    1.300804
    potential(screened) =   -2.167915
       potential(ionic) =   -5.962684

SPLIT: Orbitals with angular momentum L= 1

SPLIT: Basis orbitals for state 2p

SPLIT: PAO cut-off radius determined from an
SPLIT: energy shift=  0.007350 Ry

   izeta = 1
                 lambda =    1.000000
                     rc =    5.658549
                 energy =   -0.381140
                kinetic =    2.399701
    potential(screened) =   -2.780841
       potential(ionic) =   -6.206085

   izeta = 2
                 rmatch =    3.653288
              splitnorm =    0.150000
                 energy =   -0.249149
                kinetic =    3.542762
    potential(screened) =   -3.791911
       potential(ionic) =   -7.581078

POLgen: Perturbative polarization orbital with L=  2

POLgen: Polarization orbital for state 2p

   izeta = 1
                     rc =    5.658549
                 energy =    1.109913
                kinetic =    2.304789
    potential(screened) =   -1.194876
       potential(ionic) =   -4.013592
atom: Total number of Sankey-type orbitals: 13

atm_pop: Valence configuration (for local Pseudopot. screening):
 2s( 2.00)                                                            
 2p( 2.00)                                                            
Vna: chval, zval:    4.00000   4.00000

Vna:  Cut-off radius for the neutral-atom potential:   5.658549
comcore: Pseudo-core radius Rcore=  1.791422

atom: _________________________________________________________________________

prinput: Basis input ----------------------------------------------------------

PAO.BasisType split     

%block ChemicalSpeciesLabel
    1    5 B                       # Species index, atomic number, species label
    2    6 C                       # Species index, atomic number, species label
%endblock ChemicalSpeciesLabel

%block PAO.Basis                 # Define Basis set
B                     2                    # Species label, number of l-shells
 n=2   0   2                         # n, l, Nzeta 
   5.422      4.223   
   1.000      1.000   
 n=2   1   2 P   1                   # n, l, Nzeta, Polarization, NzetaPol
   6.790      4.609   
   1.000      1.000   
C                     2                    # Species label, number of l-shells
 n=2   0   2                         # n, l, Nzeta 
   4.633      3.432   
   1.000      1.000   
 n=2   1   2 P   1                   # n, l, Nzeta, Polarization, NzetaPol
   5.659      3.653   
   1.000      1.000   
%endblock PAO.Basis

prinput: ----------------------------------------------------------------------

coor:   Atomic-coordinates input format  =     Fractional

siesta: Atomic coordinates (Bohr) and species
siesta:     -0.02582   5.28395   0.00000  1        1
siesta:     -2.35420  38.89134   0.00000  1        2
siesta:     -2.35420  41.57980   0.00000  1        3
siesta:      2.30256  38.89134   0.00000  1        4
siesta:      2.30256  41.57980   0.00000  1        5
siesta:      2.30256   6.62836   0.00000  1        6
siesta:      2.30256   9.31683   0.00000  1        7
siesta:     -2.35420   6.62836   0.00000  1        8
siesta:     -2.35420   9.31683   0.00000  1        9
siesta:     -0.02582  10.66124   0.00000  1       10
siesta:     -7.01096  22.75985   0.00000  1       11
siesta:     -7.01096  25.44831   0.00000  1       12
siesta:    -11.66772  22.75985   0.00000  1       13
siesta:    -11.66772  25.44831   0.00000  1       14
siesta:     -9.33934  26.79272   0.00000  1       15
siesta:     -9.33934  29.48119   0.00000  1       16
siesta:     -4.68258  26.79272   0.00000  1       17
siesta:     -7.01096  30.82560   0.00000  1       18
siesta:     -0.02582  37.54693   0.00000  1       19
siesta:     -0.02582  42.92421   0.00000  1       20
siesta:     -0.02582   2.59549   0.00000  2       21
siesta:      4.63094  34.85847   0.00000  2       22
siesta:      4.63094  37.54693   0.00000  2       23
siesta:      6.95932  30.82560   0.00000  2       24
siesta:      6.95932  33.51406   0.00000  2       25
siesta:      9.28770  26.79272   0.00000  2       26
siesta:      9.28770  29.48119   0.00000  2       27
siesta:     -4.68258  34.85847   0.00000  2       28
siesta:     -4.68258  37.54693   0.00000  2       29
siesta:      4.63094  10.66124   0.00000  2       30
siesta:      4.63094  13.34970   0.00000  2       31
siesta:      6.95932  14.69411   0.00000  2       32
siesta:      6.95932  17.38257   0.00000  2       33
siesta:      9.28770  18.72698   0.00000  2       34
siesta:      9.28770  21.41544   0.00000  2       35
siesta:     11.61608  22.75985   0.00000  2       36
siesta:     11.61608  25.44831   0.00000  2       37
siesta:     -0.02582  13.34970   0.00000  2       38
siesta:      2.30256  14.69411   0.00000  2       39
siesta:      2.30256  17.38257   0.00000  2       40
siesta:      4.63094  18.72698   0.00000  2       41
siesta:      4.63094  21.41544   0.00000  2       42
siesta:      6.95932  22.75985   0.00000  2       43
siesta:      6.95932  25.44831   0.00000  2       44
siesta:     -4.68258  10.66124   0.00000  2       45
siesta:     -4.68258  13.34970   0.00000  2       46
siesta:     -2.35420  14.69411   0.00000  2       47
siesta:     -2.35420  17.38257   0.00000  2       48
siesta:     -0.02582  18.72698   0.00000  2       49
siesta:     -0.02582  21.41544   0.00000  2       50
siesta:      2.30256  22.75985   0.00000  2       51
siesta:      2.30256  25.44831   0.00000  2       52
siesta:     -7.01096  14.69411   0.00000  2       53
siesta:     -7.01096  17.38257   0.00000  2       54
siesta:     -4.68258  18.72698   0.00000  2       55
siesta:     -4.68258  21.41544   0.00000  2       56
siesta:     -2.35420  22.75985   0.00000  2       57
siesta:     -2.35420  25.44831   0.00000  2       58
siesta:     -9.33934  18.72698   0.00000  2       59
siesta:     -9.33934  21.41544   0.00000  2       60
siesta:      4.63094  26.79272   0.00000  2       61
siesta:      4.63094  29.48119   0.00000  2       62
siesta:     -0.02582  26.79272   0.00000  2       63
siesta:     -0.02582  29.48119   0.00000  2       64
siesta:     -4.68258  29.48119   0.00000  2       65
siesta:      2.30256  30.82560   0.00000  2       66
siesta:      2.30256  33.51406   0.00000  2       67
siesta:     -2.35420  30.82560   0.00000  2       68
siesta:     -2.35420  33.51406   0.00000  2       69
siesta:     -7.01096  33.51406   0.00000  2       70
siesta:     -0.02582  34.85847   0.00000  2       71
siesta:     -0.02582  45.61267   0.00000  2       72

siesta: System type = slab      

initatomlists: Number of atoms, orbitals, and projectors:     72   936  1152

siesta: ******************** Simulation parameters ****************************
siesta:
siesta: The following are some of the parameters of the simulation.
siesta: A complete list of the parameters used, including default values,
siesta: can be found in file out.fdf
siesta:
redata: Non-Collinear-spin run           =     F
redata: SpinPolarized (Up/Down) run      =     F
redata: Number of spin components        =     1
redata: Long output                      =     F
redata: Number of Atomic Species         =        2
redata: Charge density info will appear in .RHO file
redata: Write Mulliken Pop.              =     NO
redata: Mesh Cutoff                      =   200.0000  Ry
redata: Net charge of the system         =     0.0000 |e|
redata: Max. number of SCF Iter          =      500
redata: SCF convergence failure will abort job
redata: Performing Pulay mixing using    =    10 iterations
redata: Mix DM in first SCF step ?       =     F
redata: Write Pulay info on disk?        =     F
redata: Discard 1st Pulay DM after  kick =     F
redata: New DM Mixing Weight             =     0.0500
redata: New DM Occupancy tolerance       = 0.000000000001
redata: No kicks to SCF
redata: DM Mixing Weight for Kicks       =     0.5000
redata: DM Tolerance for SCF             =     0.000100
redata: Require Energy convergence for SCF =     F
redata: DM Energy tolerance for SCF      =     0.000100 eV
redata: Require Harris convergence for SCF =     F
redata: DM Harris energy tolerance for SCF =     0.000100 eV
redata: Using Saved Data (generic)   =     F
redata: Use continuation files for DM    =     T
redata: Neglect nonoverlap interactions  =     F
redata: Method of Calculation            =     Diagonalization
redata: Divide and Conquer               =     T
redata: Electronic Temperature           =     0.0019  Ry
redata: Fix the spin of the system       =     F
redata: Dynamics option                  =     Verlet MD run
redata: Initial MD time step             =        1
redata:   Final MD time step             =        1
redata: Length of MD time step           =     1.0000  fs
redata: Initial Temperature of MD run    =     0.0000  K
redata: Perform a MD quench              =     F
redata: ***********************************************************************
Total number of electrons:   268.000000
Total ionic charge:   268.000000

* ProcessorY, Blocksize:    2  24

k-point displ. along   1 input, could be:     0.50    0.00
k-point displ. along   2 input, could be:     0.50    0.00
 Kpoints in:          231 . Kpoints trimmed:          231

siesta: k-grid: Number of k-points =   231
siesta: k-grid: Cutoff (effective) =     5.000 Ang
siesta: k-grid: Supercell and displacements
siesta: k-grid:   21   0   0      0.500
siesta: k-grid:    0  21   0      0.500
siesta: k-grid:    0   0   1      0.000
Naive supercell factors:     2    2    2

superc: Internal auxiliary supercell:     2 x     2 x     2  =       8
superc: Number of atoms, orbitals, and projectors:    576   7488   9216

* Maximum dynamic memory allocated =     4 MB

siesta:                 ==============================
                            Begin MD step =      1
                        ==============================

superc: Internal auxiliary supercell:     2 x     2 x     2  =       8
superc: Number of atoms, orbitals, and projectors:    576   7488   9216

outcell: Unit cell vectors (Ang):
       12.804619    7.392750    0.000000
        0.000000   14.785500    0.000000
        0.000000    0.000000   10.000000

outcell: Cell vector modules (Ang)   :   14.785500   14.785500   10.000000
outcell: Cell angles (23,13,12) (deg):     90.0000     90.0000     60.0000
outcell: Cell volume (Ang**3)        :   1893.2269
New_DM. Step:     1
Initializing Density Matrix...

InitMesh: MESH =   120 x   120 x    90 =     1296000
InitMesh: Mesh cutoff (required, used) =   200.000   223.865 Ry

* Maximum dynamic memory allocated =   234 MB

stepf: Fermi-Dirac step function

siesta: Program's energy decomposition (eV):
siesta: Ebs     =     -5485.841312
siesta: Eions   =     15841.876847
siesta: Ena     =      4248.646481
siesta: Ekin    =      5323.417823
siesta: Enl     =       820.564584
siesta: DEna    =        -0.000008
siesta: DUscf   =         0.000000
siesta: DUext   =         0.000000
siesta: Exc     =     -4183.594559
siesta: eta*DQ  =         0.000000
siesta: Emadel  =         0.000000
siesta: Emeta   =         0.000000
siesta: Emolmec =         0.000000
siesta: Ekinion =         0.000000
siesta: Eharris =     -9488.392105
siesta: Etot    =     -9632.842526
siesta: FreeEng =     -9632.842526

siesta: iscf   Eharris(eV)      E_KS(eV)   FreeEng(eV)   dDmax  Ef(eV)
siesta:    1    -9488.3921    -9632.8425    -9632.8425  7.4602 -8.1789
timer: Routine,Calls,Time,% = IterSCF        1    3497.975  99.70
elaps: Routine,Calls,Wall,% = IterSCF        1     438.098  99.70
siesta:    2   -14792.4548    -8539.9315    -8540.0291 13.3996 -6.7360
siesta:    3    -9708.8824    -9408.0237    -9408.0469  1.6121 -4.9994
siesta:    4    -9543.9319    -9387.5487    -9387.5519  1.5869 -4.6553
siesta:    5    -9465.4902    -9362.2141    -9362.2701  1.5242 -4.8694
siesta:    6    -9450.8870    -9340.7066    -9340.7079  1.5399 -4.7225
siesta:    7    -9343.8365    -9279.7526    -9279.7575  0.6725 -4.6636
siesta:    8    -9340.0868    -9278.5113    -9278.5404  0.9839 -4.5921
siesta:    9    -9339.3805    -9278.5572    -9278.5750  0.6418 -4.6754
siesta:   10    -9332.7539    -9281.7390    -9281.7818  0.9445 -4.7047
siesta:   11    -9332.5687    -9281.9864    -9282.0300  0.5304 -4.7741
siesta:   12    -9331.2252    -9289.3732    -9289.4293  0.8307 -4.7317
siesta:   13    -9335.1307    -9295.5213    -9295.5604  0.6634 -4.5856
siesta:   14    -9330.6529    -9299.6024    -9299.6591  0.6251 -4.7269
siesta:   15    -9329.0260    -9306.6807    -9306.7506  0.5806 -4.8028
siesta:   16    -9328.7432    -9315.8353    -9315.8937  0.5330 -4.8767
siesta:   17    -9327.9430    -9319.6071    -9319.6727  0.4231 -4.9148
siesta:   18    -9327.9057    -9318.6077    -9318.6997  0.3573 -4.9149
siesta:   19    -9327.4594    -9319.7647    -9319.8508  0.1450 -4.9088
siesta:   20    -9327.3136    -9321.6095    -9321.7071  0.2022 -4.9603
siesta:   21    -9327.3963    -9323.0569    -9323.1503  0.2595 -4.9599
siesta:   22    -9327.3683    -9324.4743    -9324.5616  0.2847 -4.9516
siesta:   23    -9327.4055    -9324.8779    -9324.9589  0.4042 -4.9136
siesta:   24    -9327.3350    -9325.2193    -9325.3036  0.2517 -4.9101
siesta:   25    -9327.2863    -9325.9873    -9326.0679  0.1338 -4.9216
siesta:   26    -9327.2584    -9326.7595    -9326.8483  0.1180 -4.9203
siesta:   27    -9327.2013    -9327.4798    -9327.5703  0.0396 -4.9303
siesta:   28    -9327.1878    -9327.6574    -9327.7508  0.0768 -4.9398
siesta:   29    -9327.1812    -9327.6606    -9327.7528  0.0468 -4.9370
siesta:   30    -9327.1819    -9327.0568    -9327.1502  0.0484 -4.9300
siesta:   31    -9327.1829    -9326.4417    -9326.5340  0.0562 -4.9192
siesta:   32    -9327.1827    -9326.5389    -9326.6318  0.0506 -4.9204
siesta:   33    -9327.1794    -9326.9479    -9327.0408  0.0320 -4.9226
siesta:   34    -9327.1783    -9327.3127    -9327.4065  0.0229 -4.9299
siesta:   35    -9327.1768    -9327.2381    -9327.3317  0.0152 -4.9267
siesta:   36    -9327.1761    -9327.2939    -9327.3876  0.0125 -4.9281
siesta:   37    -9327.1754    -9327.2461    -9327.3397  0.0089 -4.9261
siesta:   38    -9327.1749    -9327.2068    -9327.3005  0.0037 -4.9247
siesta:   39    -9327.1748    -9327.1152    -9327.2092  0.0049 -4.9240
siesta:   40    -9327.1748    -9327.1033    -9327.1973  0.0040 -4.9254
siesta:   41    -9327.1748    -9327.1051    -9327.1991  0.0047 -4.9255
siesta:   42    -9327.1748    -9327.0994    -9327.1934  0.0016 -4.9252
siesta:   43    -9327.1748    -9327.1027    -9327.1967  0.0010 -4.9252
siesta:   44    -9327.1748    -9327.1139    -9327.2079  0.0015 -4.9251
siesta:   45    -9327.1748    -9327.1457    -9327.2397  0.0007 -4.9254
siesta:   46    -9327.1748    -9327.1533    -9327.2474  0.0003 -4.9255
siesta:   47    -9327.1748    -9327.1537    -9327.2477  0.0003 -4.9255
siesta:   48    -9327.1748    -9327.1562    -9327.2502  0.0002 -4.9255
siesta:   49    -9327.1748    -9327.1578    -9327.2519  0.0001 -4.9254

siesta: E_KS(eV) =            -9327.1637

siesta: E_KS - E_eggbox =     -9327.1637

siesta: Atomic forces (eV/Ang):
----------------------------------------
   Tot   -0.061260   -0.029955    0.000000
----------------------------------------
   Max  570.866728
   Res  137.183672    sqrt( Sum f_i^2 / 3N )
----------------------------------------
   Max  570.866728    constrained

Stress-tensor-Voigt (kbar):     -622.26    -2425.26       -0.60       -1.34        0.00        0.00
(Free)E + p*V (eV/cell)    -8126.6610
Target enthalpy (eV/cell)    -9327.2578

siesta: Stress tensor (static) (eV/Ang**3):
        -0.388377   -0.000837    0.000000
        -0.000837   -1.513709    0.000000
         0.000000    0.000000   -0.000375

siesta: Pressure (static):       1016.03719799  kBar

siesta: Stress tensor (total) (eV/Ang**3):
        -0.388377   -0.000837    0.000000
        -0.000837   -1.513709    0.000000
         0.000000    0.000000   -0.000375

siesta: Pressure (total):       1016.03719799  kBar

siesta: Temp_ion =       0.000 K

* Maximum dynamic memory allocated =   252 MB
Computing bands...

siesta: Program's energy decomposition (eV):
siesta: Ebs     =     -4176.625974
siesta: Eions   =     15841.876847
siesta: Ena     =      4248.646481
siesta: Ekin    =      8050.386681
siesta: Enl     =      -833.620595
siesta: DEna    =      -703.313153
siesta: DUscf   =        90.902426
siesta: DUext   =         0.000000
siesta: Exc     =     -4338.288716
siesta: eta*DQ  =         0.000000
siesta: Emadel  =         0.000000
siesta: Emeta   =         0.000000
siesta: Emolmec =         0.000000
siesta: Ekinion =         0.000000
siesta: Eharris =     -9327.174778
siesta: Etot    =     -9327.163722
siesta: FreeEng =     -9327.257766

siesta: Final energy (eV):
siesta:  Band Struct. =   -4176.625974
siesta:       Kinetic =    8050.386681
siesta:       Hartree =   25652.196858
siesta:    Ext. field =       0.000000
siesta:   Exch.-corr. =   -4338.288716
siesta:  Ion-electron =  -59122.716607
siesta:       Ion-ion =   20431.258063
siesta:       Ekinion =       0.000000
siesta:         Total =   -9327.163722

siesta: Atomic forces (eV/Ang):
siesta:      1   -0.304626 -103.889353    0.000000
siesta:      2   -3.640029  100.016661    0.000000
siesta:      3    1.008761 -400.514441    0.000000
siesta:      4    3.402599   99.917156    0.000000
siesta:      5   -1.472914 -400.030670    0.000000
siesta:      6   -1.002604  400.397271    0.000000
siesta:      7    3.462399  -99.991813    0.000000
siesta:      8    0.328800  400.156253    0.000000
siesta:      9   -3.714424 -100.180426    0.000000
siesta:     10   -0.119434  299.056482    0.000000
siesta:     11    2.343825   -4.914533    0.000000
siesta:     12   -1.274927    0.944999    0.000000
siesta:     13   -2.263625   -4.532680    0.000000
siesta:     14   -5.857885    3.964024    0.000000
siesta:     15   -4.423213    0.644043    0.000000
siesta:     16   -5.254120    1.039492    0.000000
siesta:     17    3.620162    1.687861    0.000000
siesta:     18    1.554689    4.889526    0.000000
siesta:     19    0.100626 -299.113832    0.000000
siesta:     20    0.367215  103.667290    0.000000
siesta:     21    0.989465  550.843262    0.000000
siesta:     22   24.891720    1.899801    0.000000
siesta:     23   21.120254 -549.648481    0.000000
siesta:     24    1.623976   -0.101858    0.000000
siesta:     25   -1.350760    2.896473    0.000000
siesta:     26    2.459141    1.811079    0.000000
siesta:     27   -0.943865    0.681645    0.000000
siesta:     28  -24.728328    3.037088    0.000000
siesta:     29  -20.398651 -549.827582    0.000000
siesta:     30   20.506302  549.506709    0.000000
siesta:     31   24.804831   -1.468294    0.000000
siesta:     32   -1.444754   -3.051111    0.000000
siesta:     33    1.601403    0.174089    0.000000
siesta:     34   -0.659690   -0.521435    0.000000
siesta:     35    1.702033   -1.959169    0.000000
siesta:     36    0.066223    6.537333    0.000000
siesta:     37   -0.303250   -6.526872    0.000000
siesta:     38   -0.189657 -126.118288    0.000000
siesta:     39   31.317600  410.533971    0.000000
siesta:     40   19.148532   -4.254902    0.000000
siesta:     41   -1.122569    2.048729    0.000000
siesta:     42    0.380004   -0.429520    0.000000
siesta:     43   -0.274465    0.612828    0.000000
siesta:     44   -0.438352   -0.485926    0.000000
siesta:     45  -20.841416  550.019825    0.000000
siesta:     46  -24.447947   -1.994208    0.000000
siesta:     47  -31.037297  410.853222    0.000000
siesta:     48  -19.307447   -4.545054    0.000000
siesta:     49   -0.064338  570.333893    0.000000
siesta:     50   -0.625251    1.893014    0.000000
siesta:     51   -0.383869    0.235507    0.000000
siesta:     52   -0.749494   -0.085493    0.000000
siesta:     53    1.442711   -2.131842    0.000000
siesta:     54   -1.535193   -1.626972    0.000000
siesta:     55    1.239669    2.586806    0.000000
siesta:     56    1.327833   -2.170315    0.000000
siesta:     57    2.213270   -1.088935    0.000000
siesta:     58    4.166556   -0.659648    0.000000
siesta:     59    1.128987    1.665681    0.000000
siesta:     60   -4.042915   -5.621966    0.000000
siesta:     61    0.778263    0.774581    0.000000
siesta:     62   -0.913775   -2.459512    0.000000
siesta:     63   -0.026941   -2.538617    0.000000
siesta:     64   -0.577282 -570.866728    0.000000
siesta:     65    4.168743    0.580699    0.000000
siesta:     66   19.045207    4.633547    0.000000
siesta:     67   30.813207 -410.918490    0.000000
siesta:     68  -19.953057    3.988247    0.000000
siesta:     69  -30.104816 -411.178452    0.000000
siesta:     70    2.298405    5.077249    0.000000
siesta:     71    0.077792  126.197574    0.000000
siesta:     72    0.230717 -550.386447    0.000000
siesta: ----------------------------------------
siesta:    Tot   -0.061260   -0.029955    0.000000

siesta: Stress tensor (static) (eV/Ang**3):
siesta:    -0.388377   -0.000837    0.000000
siesta:    -0.000837   -1.513709    0.000000
siesta:     0.000000    0.000000   -0.000375

siesta: Cell volume =       1893.226884 Ang**3

siesta: Pressure (static):
siesta:                Solid            Molecule  Units
siesta:           0.00690674          0.10482725  Ry/Bohr**3
siesta:           0.63415368          9.62488181  eV/Ang**3
siesta:        1016.03719799      15420.92742837  kBar
(Free)E+ p_basis*V_orbitals  =       -9290.201080
(Free)Eharris+ p_basis*V_orbitals  =       -9290.218019

siesta: Electric dipole (a.u.)  =    0.000000    0.000000    0.000000
siesta: Electric dipole (Debye) =    0.000000    0.000000    0.000000

* Maximum dynamic memory allocated : Node    0 =   252 MB
* Maximum dynamic memory allocated : Node    1 =    89 MB
* Maximum dynamic memory allocated : Node    2 =    91 MB
* Maximum dynamic memory allocated : Node    3 =   238 MB
* Maximum dynamic memory allocated : Node    4 =   218 MB
* Maximum dynamic memory allocated : Node    5 =    80 MB
* Maximum dynamic memory allocated : Node    6 =    82 MB
* Maximum dynamic memory allocated : Node    7 =   201 MB

* Maximum memory occured during matrixMtoO                    

timer: CPU execution times:
timer:  Routine       Calls   Time/call    Tot.time        %
timer:  siesta            1  168991.471  168991.471   100.00
timer:  Setup             1       2.685       2.685     0.00
timer:  bands             3     243.856     731.567     0.43
timer:  writewave         1       0.016       0.016     0.00
timer:  KSV_init          1       0.004       0.004     0.00
timer:  IterMD            1  168251.873  168251.873    99.56
timer:  hsparse           1       0.515       0.515     0.00
timer:  overlap           1       7.188       7.188     0.00
timer:  IterSCF          49    3429.209  168031.217    99.43
timer:  kinefsm           2       3.740       7.479     0.00
timer:  nlefsm            2      20.143      40.287     0.02
timer:  DHSCF            50     115.081    5754.065     3.40
timer:  DHSCF1            1       0.994       0.994     0.00
timer:  DHSCF2            1      43.752      43.752     0.03
timer:  REORD           402       0.005       2.078     0.00
timer:  POISON           51       0.881      44.943     0.03
timer:  DHSCF3           50     113.347    5667.366     3.35
timer:  rhoofd           50      23.927    1196.350     0.71
timer:  cellXC           50       3.326     166.312     0.10
timer:  vmat             50      53.717    2685.853     1.59
timer:  MolMec            2       0.000       0.000     0.00
timer:  diagon           49    3313.488  162360.892    96.08
timer:  c-eigval      11440       6.032   69011.637    40.84
timer:  c-buildHS     11440       0.052     598.894     0.35
timer:  cdiag         22759       6.172  140479.639    83.13
timer:  cdiag1        22759       0.385    8756.615     5.18
timer:  cdiag2        22759       1.768   40226.660    23.80
timer:  cdiag3        22759       3.733   84950.963    50.27
timer:  cdiag4        22759       0.156    3550.006     2.10
timer:  c-eigvec      11319       6.412   72582.404    42.95
timer:  c-buildD      11319       1.894   21440.922    12.69
timer:  DHSCF4            1      41.004      41.004     0.02
timer:  dfscf             1      38.221      38.221     0.02
timer:  overfsm           1       0.453       0.453     0.00
timer:  optical           1       4.672       4.672     0.00
  

elaps: ELAPSED times:
elaps:  Routine       Calls   Time/call    Tot.time        %
elaps:  siesta            1   21164.302   21164.302   100.00
elaps:  Setup             1       0.337       0.337     0.00
elaps:  bands             3      30.557      91.671     0.43
elaps:  writewave         1       0.002       0.002     0.00
elaps:  KSV_init          1       0.000       0.000     0.00
elaps:  IterMD            1   21071.675   21071.675    99.56
elaps:  hsparse           1       0.068       0.068     0.00
elaps:  overlap           1       0.903       0.903     0.00
elaps:  IterSCF          49     429.470   21044.043    99.43
elaps:  kinefsm           2       0.469       0.939     0.00
elaps:  nlefsm            2       2.583       5.165     0.02
elaps:  DHSCF            50      14.527     726.336     3.43
elaps:  DHSCF1            1       0.126       0.126     0.00
elaps:  DHSCF2            1       5.478       5.478     0.03
elaps:  REORD           402       0.001       0.270     0.00
elaps:  POISON           51       0.111       5.669     0.03
elaps:  DHSCF3           50      14.196     709.814     3.35
elaps:  rhoofd           50       6.918     345.920     1.63
elaps:  cellXC           50       0.416      20.816     0.10
elaps:  vmat             50       6.728     336.393     1.59
elaps:  MolMec            2       0.000       0.000     0.00
elaps:  diagon           49     414.987   20334.352    96.08
elaps:  c-eigval      11440       0.755    8642.879    40.84
elaps:  c-buildHS     11440       0.007      82.087     0.39
elaps:  cdiag         22759       0.768   17473.862    82.56
elaps:  cdiag1        22759       0.048    1091.168     5.16
elaps:  cdiag2        22759       0.221    5038.924    23.81
elaps:  cdiag3        22759       0.468   10653.215    50.34
elaps:  cdiag4        22759       0.019     441.844     2.09
elaps:  c-eigvec      11319       0.794    8984.417    42.45
elaps:  c-buildD      11319       0.247    2790.772    13.19
elaps:  DHSCF4            1      10.805      10.805     0.05
elaps:  dfscf             1      10.232      10.232     0.05
elaps:  overfsm           1       0.057       0.057     0.00
elaps:  optical           1       0.000       0.000     0.00
  
>> End of run:  27-APR-2016  15:18:38
