Siesta Version:                                        siesta-3.2-pl-3
Architecture  : x86_64-unknown-linux-gnu--unknown
Compiler flags: mpiifort -g -O2 -fPIC -xSSE4.1 -fp-model source -shared-intel 
PARALLEL version

* Running on    8 nodes in parallel
>> Start of run:  27-APR-2016  11:30:15

                           ***********************       
                           *  WELCOME TO SIESTA  *       
                           ***********************       

reinit: Reading from standard input
************************** Dump of input data file ****************************
#(1) General system descriptors
SystemName            GRP_doping    # Descriptive name of the system
SystemLabel           GRP_doping    # Short name for naming files
%include STRUCT.fdf
%include KPT.fdf
%include BASIS.fdf
#%include TS.fdf # for transiesta calculation
#(4) DFT, Grid, SCF
XC.functional         GGA           # LDA or GGA (default = LDA)
XC.authors            PBE           # CA (Ceperley-Aldr) = PZ
                                    #    (Perdew-Zunger) - LDA - Default
                                    # PW92 (Perdew-Wang-92) - LDA
                                    # PBE (Perdew-Burke-Ernzerhof) - GGA
MeshCutoff            200.000000    Ry      # Default: 50.0 Ry ~ 0.444 Bohr
                                    #         100.0 Ry ~ 0.314 Bohr
MaxSCFIterations      500           # Default: 50
DM.MixingWeight       0.05          # Default: 0.25
DM.NumberPulay        10            # Default: 0
DM.PulayOnFile        F             # SystemLabel.P1, SystemLabel.P2
DM.Tolerance          1.d-4         # Default: 1.d-4
DM.UseSaveDM          .true.        # because of the bug
SCFMustConverge       .true.
NeglNonOverlapInt     F             # Default: F
#(5) Eigenvalue problem: order-N or diagonalization
SolutionMethod        Diagon        # or Transiesta
ElectronicTemperature 300.0 K       # Default: 300.0 K
#(6) Molecular dynamics and relaxations
#MD.TypeOfRun          CG            # Type of dynamics:
#MD.VariableCell       F
#MD.NumCGsteps         0           # 0 for single-point / 100 for gopt
#MD.MaxCGDispl         0.2 Bohr      # Default: 0.2 Bohr
#MD.MaxForceTol        0.02 eV/Ang   # Default: 0.04 eV/Ang
#MD.MaxStressTol       1.0 GPa       # Default: 1.0 GPa
# Geometry Constraints
#%block GeometryConstraints
#	position from 1 to 44
#%endblock GeometryConstraints
BandLinesScale   pi/a
%block BandLines
 1   0.00000000  0.00000000  0.00000000
50   0.00000000  0.07809418  0.00000000
50   0.04509075  0.07809242  0.00000000
20   0.00000000  0.00000000  0.00000000
%endblock BandLines
************************** End of input data file *****************************

reinit: -----------------------------------------------------------------------
reinit: System Name: GRP_doping
reinit: -----------------------------------------------------------------------
reinit: System Label: GRP_doping                                                  
reinit: -----------------------------------------------------------------------

initatom: Reading input for the pseudopotentials and atomic orbitals ----------
 Species number:            1  Label: B Atomic number:           5
 Species number:            2  Label: C Atomic number:           6
Ground state valence configuration:   2s02  2p01
Reading pseudopotential information in formatted form from B.psf

Valence configuration for pseudopotential generation:
2s( 2.00) rc: 1.74
2p( 1.00) rc: 1.74
3d( 0.00) rc: 1.74
4f( 0.00) rc: 1.74
Ground state valence configuration:   2s02  2p02
Reading pseudopotential information in formatted form from C.psf

Valence configuration for pseudopotential generation:
2s( 2.00) rc: 1.54
2p( 2.00) rc: 1.54
3d( 0.00) rc: 1.54
4f( 0.00) rc: 1.54
For B, standard SIESTA heuristics set lmxkb to 3
 (one more than the basis l, including polarization orbitals).
Use PS.lmax or PS.KBprojectors blocks to override.
For C, standard SIESTA heuristics set lmxkb to 3
 (one more than the basis l, including polarization orbitals).
Use PS.lmax or PS.KBprojectors blocks to override.

<basis_specs>
===============================================================================
B                    Z=   5    Mass=  10.810        Charge= 0.17977+309
Lmxo=1 Lmxkb= 3    BasisType=split      Semic=F
L=0  Nsemic=0  Cnfigmx=2
          n=1  nzeta=2  polorb=0
            splnorm:   0.15000    
               vcte:    0.0000    
               rinn:    0.0000    
                rcs:    0.0000      0.0000    
            lambdas:    1.0000      1.0000    
L=1  Nsemic=0  Cnfigmx=2
          n=1  nzeta=2  polorb=1
            splnorm:   0.15000    
               vcte:    0.0000    
               rinn:    0.0000    
                rcs:    0.0000      0.0000    
            lambdas:    1.0000      1.0000    
-------------------------------------------------------------------------------
L=0  Nkbl=1  erefs: 0.17977+309
L=1  Nkbl=1  erefs: 0.17977+309
L=2  Nkbl=1  erefs: 0.17977+309
L=3  Nkbl=1  erefs: 0.17977+309
===============================================================================
</basis_specs>

atom: Called for B                     (Z =   5)

read_vps: Pseudopotential generation method:
read_vps: ATM3      Troullier-Martins                       
Total valence charge:    3.00000

read_vps: Pseudopotential includes a core correction:
read_vps: Pseudo-core for xc-correction

xc_check: Exchange-correlation functional:
xc_check: GGA Perdew, Burke & Ernzerhof 1996
V l=0 = -2*Zval/r beyond r=  1.7165
V l=1 = -2*Zval/r beyond r=  1.7165
V l=2 = -2*Zval/r beyond r=  1.7165
V l=3 = -2*Zval/r beyond r=  1.6951
All V_l potentials equal beyond r=  1.7165
This should be close to max(r_c) in ps generation
All pots = -2*Zval/r beyond r=  1.7165

VLOCAL1: 99.0% of the norm of Vloc inside     14.733 Ry
VLOCAL1: 99.9% of the norm of Vloc inside     33.577 Ry
atom: Maximum radius for 4*pi*r*r*local-pseudopot. charge    2.04484
atom: Maximum radius for r*vlocal+2*Zval:    1.75994
GHOST: No ghost state for L =  0
GHOST: No ghost state for L =  1
GHOST: No ghost state for L =  2
GHOST: No ghost state for L =  3

KBgen: Kleinman-Bylander projectors: 
   l= 0   rc=  1.897051   el= -0.693730   Ekb=  4.595746   kbcos=  0.286105
   l= 1   rc=  1.920920   el= -0.265236   Ekb= -2.350715   kbcos= -0.315747
   l= 2   rc=  2.044840   el=  0.002055   Ekb= -0.690767   kbcos= -0.013822
   l= 3   rc=  2.149707   el=  0.003188   Ekb= -0.315358   kbcos= -0.002055

KBgen: Total number of  Kleinman-Bylander projectors:   16
atom: -------------------------------------------------------------------------

atom: SANKEY-TYPE ORBITALS:
atom: Selected multiple-zeta basis: split     

SPLIT: Orbitals with angular momentum L= 0

SPLIT: Basis orbitals for state 2s

SPLIT: PAO cut-off radius determined from an
SPLIT: energy shift=  0.007350 Ry

   izeta = 1
                 lambda =    1.000000
                     rc =    5.422032
                 energy =   -0.686029
                kinetic =    0.576707
    potential(screened) =   -1.262736
       potential(ionic) =   -3.271094

   izeta = 2
                 rmatch =    4.222573
              splitnorm =    0.150000
                 energy =   -0.602132
                kinetic =    0.858975
    potential(screened) =   -1.461107
       potential(ionic) =   -3.582536

SPLIT: Orbitals with angular momentum L= 1

SPLIT: Basis orbitals for state 2p

SPLIT: PAO cut-off radius determined from an
SPLIT: energy shift=  0.007350 Ry

   izeta = 1
                 lambda =    1.000000
                     rc =    6.790259
                 energy =   -0.258578
                kinetic =    1.481412
    potential(screened) =   -1.739989
       potential(ionic) =   -3.657461

   izeta = 2
                 rmatch =    4.608740
              splitnorm =    0.150000
                 energy =   -0.173757
                kinetic =    2.186690
    potential(screened) =   -2.360447
       potential(ionic) =   -4.464260

POLgen: Perturbative polarization orbital with L=  2

POLgen: Polarization orbital for state 2p

   izeta = 1
                     rc =    6.790259
                 energy =    0.684082
                kinetic =    1.471481
    potential(screened) =   -0.787399
       potential(ionic) =   -2.406985
atom: Total number of Sankey-type orbitals: 13

atm_pop: Valence configuration (for local Pseudopot. screening):
 2s( 2.00)                                                            
 2p( 1.00)                                                            
Vna: chval, zval:    3.00000   3.00000

Vna:  Cut-off radius for the neutral-atom potential:   6.790259
comcore: Pseudo-core radius Rcore=  2.122997

atom: _________________________________________________________________________

<basis_specs>
===============================================================================
C                    Z=   6    Mass=  12.010        Charge= 0.17977+309
Lmxo=1 Lmxkb= 3    BasisType=split      Semic=F
L=0  Nsemic=0  Cnfigmx=2
          n=1  nzeta=2  polorb=0
            splnorm:   0.15000    
               vcte:    0.0000    
               rinn:    0.0000    
                rcs:    0.0000      0.0000    
            lambdas:    1.0000      1.0000    
L=1  Nsemic=0  Cnfigmx=2
          n=1  nzeta=2  polorb=1
            splnorm:   0.15000    
               vcte:    0.0000    
               rinn:    0.0000    
                rcs:    0.0000      0.0000    
            lambdas:    1.0000      1.0000    
-------------------------------------------------------------------------------
L=0  Nkbl=1  erefs: 0.17977+309
L=1  Nkbl=1  erefs: 0.17977+309
L=2  Nkbl=1  erefs: 0.17977+309
L=3  Nkbl=1  erefs: 0.17977+309
===============================================================================
</basis_specs>

atom: Called for C                     (Z =   6)

read_vps: Pseudopotential generation method:
read_vps: ATM3      Troullier-Martins                       
Total valence charge:    4.00000

read_vps: Pseudopotential includes a core correction:
read_vps: Pseudo-core for xc-correction

xc_check: Exchange-correlation functional:
xc_check: GGA Perdew, Burke & Ernzerhof 1996
V l=0 = -2*Zval/r beyond r=  1.5227
V l=1 = -2*Zval/r beyond r=  1.5227
V l=2 = -2*Zval/r beyond r=  1.5227
V l=3 = -2*Zval/r beyond r=  1.5038
All V_l potentials equal beyond r=  1.5227
This should be close to max(r_c) in ps generation
All pots = -2*Zval/r beyond r=  1.5227

VLOCAL1: 99.0% of the norm of Vloc inside     18.722 Ry
VLOCAL1: 99.9% of the norm of Vloc inside     42.668 Ry
atom: Maximum radius for 4*pi*r*r*local-pseudopot. charge    1.83678
atom: Maximum radius for r*vlocal+2*Zval:    1.58088
GHOST: No ghost state for L =  0
GHOST: No ghost state for L =  1
GHOST: No ghost state for L =  2
GHOST: No ghost state for L =  3

KBgen: Kleinman-Bylander projectors: 
   l= 0   rc=  1.704034   el= -1.009801   Ekb=  5.335044   kbcos=  0.316824
   l= 1   rc=  1.704034   el= -0.388707   Ekb= -3.785862   kbcos= -0.366464
   l= 2   rc=  1.791422   el=  0.001971   Ekb= -0.970471   kbcos= -0.009212
   l= 3   rc=  1.859892   el=  0.003065   Ekb= -0.399525   kbcos= -0.001223

KBgen: Total number of  Kleinman-Bylander projectors:   16
atom: -------------------------------------------------------------------------

atom: SANKEY-TYPE ORBITALS:
atom: Selected multiple-zeta basis: split     

SPLIT: Orbitals with angular momentum L= 0

SPLIT: Basis orbitals for state 2s

SPLIT: PAO cut-off radius determined from an
SPLIT: energy shift=  0.007350 Ry

   izeta = 1
                 lambda =    1.000000
                     rc =    4.632753
                 energy =   -1.002270
                kinetic =    0.855760
    potential(screened) =   -1.858031
       potential(ionic) =   -5.417575

   izeta = 2
                 rmatch =    3.431921
              splitnorm =    0.150000
                 energy =   -0.867111
                kinetic =    1.300804
    potential(screened) =   -2.167915
       potential(ionic) =   -5.962684

SPLIT: Orbitals with angular momentum L= 1

SPLIT: Basis orbitals for state 2p

SPLIT: PAO cut-off radius determined from an
SPLIT: energy shift=  0.007350 Ry

   izeta = 1
                 lambda =    1.000000
                     rc =    5.658549
                 energy =   -0.381140
                kinetic =    2.399701
    potential(screened) =   -2.780841
       potential(ionic) =   -6.206085

   izeta = 2
                 rmatch =    3.653288
              splitnorm =    0.150000
                 energy =   -0.249149
                kinetic =    3.542762
    potential(screened) =   -3.791911
       potential(ionic) =   -7.581078

POLgen: Perturbative polarization orbital with L=  2

POLgen: Polarization orbital for state 2p

   izeta = 1
                     rc =    5.658549
                 energy =    1.109913
                kinetic =    2.304789
    potential(screened) =   -1.194876
       potential(ionic) =   -4.013592
atom: Total number of Sankey-type orbitals: 13

atm_pop: Valence configuration (for local Pseudopot. screening):
 2s( 2.00)                                                            
 2p( 2.00)                                                            
Vna: chval, zval:    4.00000   4.00000

Vna:  Cut-off radius for the neutral-atom potential:   5.658549
comcore: Pseudo-core radius Rcore=  1.791422

atom: _________________________________________________________________________

prinput: Basis input ----------------------------------------------------------

PAO.BasisType split     

%block ChemicalSpeciesLabel
    1    5 B                       # Species index, atomic number, species label
    2    6 C                       # Species index, atomic number, species label
%endblock ChemicalSpeciesLabel

%block PAO.Basis                 # Define Basis set
B                     2                    # Species label, number of l-shells
 n=2   0   2                         # n, l, Nzeta 
   5.422      4.223   
   1.000      1.000   
 n=2   1   2 P   1                   # n, l, Nzeta, Polarization, NzetaPol
   6.790      4.609   
   1.000      1.000   
C                     2                    # Species label, number of l-shells
 n=2   0   2                         # n, l, Nzeta 
   4.633      3.432   
   1.000      1.000   
 n=2   1   2 P   1                   # n, l, Nzeta, Polarization, NzetaPol
   5.659      3.653   
   1.000      1.000   
%endblock PAO.Basis

prinput: ----------------------------------------------------------------------

coor:   Atomic-coordinates input format  =     Fractional

siesta: Atomic coordinates (Bohr) and species
siesta:     -0.02582   5.28395   0.00000  1        1
siesta:      4.63094  21.41544   0.00000  1        2
siesta:      6.95932  22.75985   0.00000  1        3
siesta:      6.95932  25.44831   0.00000  1        4
siesta:     -0.02582  21.41544   0.00000  1        5
siesta:      2.30256  22.75985   0.00000  1        6
siesta:      2.30256  25.44831   0.00000  1        7
siesta:     -4.68258  21.41544   0.00000  1        8
siesta:     -2.35420  22.75985   0.00000  1        9
siesta:     -2.35420  25.44831   0.00000  1       10
siesta:     -9.33934  21.41544   0.00000  1       11
siesta:     -7.01096  22.75985   0.00000  1       12
siesta:     -7.01096  25.44831   0.00000  1       13
siesta:    -11.66772  22.75985   0.00000  1       14
siesta:    -11.66772  25.44831   0.00000  1       15
siesta:     -9.33934  26.79272   0.00000  1       16
siesta:      4.63094  26.79272   0.00000  1       17
siesta:     -0.02582  26.79272   0.00000  1       18
siesta:     -4.68258  26.79272   0.00000  1       19
siesta:     -0.02582  45.61267   0.00000  1       20
siesta:     -0.02582   2.59549   0.00000  2       21
siesta:     -2.35420  38.89134   0.00000  2       22
siesta:     -2.35420  41.57980   0.00000  2       23
siesta:      2.30256  38.89134   0.00000  2       24
siesta:      2.30256  41.57980   0.00000  2       25
siesta:      4.63094  34.85847   0.00000  2       26
siesta:      4.63094  37.54693   0.00000  2       27
siesta:      6.95932  30.82560   0.00000  2       28
siesta:      6.95932  33.51406   0.00000  2       29
siesta:      9.28770  26.79272   0.00000  2       30
siesta:      9.28770  29.48119   0.00000  2       31
siesta:     -4.68258  34.85847   0.00000  2       32
siesta:     -4.68258  37.54693   0.00000  2       33
siesta:      2.30256   6.62836   0.00000  2       34
siesta:      2.30256   9.31683   0.00000  2       35
siesta:      4.63094  10.66124   0.00000  2       36
siesta:      4.63094  13.34970   0.00000  2       37
siesta:      6.95932  14.69411   0.00000  2       38
siesta:      6.95932  17.38257   0.00000  2       39
siesta:      9.28770  18.72698   0.00000  2       40
siesta:      9.28770  21.41544   0.00000  2       41
siesta:     11.61608  22.75985   0.00000  2       42
siesta:     11.61608  25.44831   0.00000  2       43
siesta:     -2.35420   6.62836   0.00000  2       44
siesta:     -2.35420   9.31683   0.00000  2       45
siesta:     -0.02582  10.66124   0.00000  2       46
siesta:     -0.02582  13.34970   0.00000  2       47
siesta:      2.30256  14.69411   0.00000  2       48
siesta:      2.30256  17.38257   0.00000  2       49
siesta:      4.63094  18.72698   0.00000  2       50
siesta:     -4.68258  10.66124   0.00000  2       51
siesta:     -4.68258  13.34970   0.00000  2       52
siesta:     -2.35420  14.69411   0.00000  2       53
siesta:     -2.35420  17.38257   0.00000  2       54
siesta:     -0.02582  18.72698   0.00000  2       55
siesta:     -7.01096  14.69411   0.00000  2       56
siesta:     -7.01096  17.38257   0.00000  2       57
siesta:     -4.68258  18.72698   0.00000  2       58
siesta:     -9.33934  18.72698   0.00000  2       59
siesta:     -9.33934  29.48119   0.00000  2       60
siesta:      4.63094  29.48119   0.00000  2       61
siesta:     -0.02582  29.48119   0.00000  2       62
siesta:     -4.68258  29.48119   0.00000  2       63
siesta:      2.30256  30.82560   0.00000  2       64
siesta:      2.30256  33.51406   0.00000  2       65
siesta:     -2.35420  30.82560   0.00000  2       66
siesta:     -2.35420  33.51406   0.00000  2       67
siesta:     -7.01096  30.82560   0.00000  2       68
siesta:     -7.01096  33.51406   0.00000  2       69
siesta:     -0.02582  34.85847   0.00000  2       70
siesta:     -0.02582  37.54693   0.00000  2       71
siesta:     -0.02582  42.92421   0.00000  2       72

siesta: System type = slab      

initatomlists: Number of atoms, orbitals, and projectors:     72   936  1152

siesta: ******************** Simulation parameters ****************************
siesta:
siesta: The following are some of the parameters of the simulation.
siesta: A complete list of the parameters used, including default values,
siesta: can be found in file out.fdf
siesta:
redata: Non-Collinear-spin run           =     F
redata: SpinPolarized (Up/Down) run      =     F
redata: Number of spin components        =     1
redata: Long output                      =     F
redata: Number of Atomic Species         =        2
redata: Charge density info will appear in .RHO file
redata: Write Mulliken Pop.              =     NO
redata: Mesh Cutoff                      =   200.0000  Ry
redata: Net charge of the system         =     0.0000 |e|
redata: Max. number of SCF Iter          =      500
redata: SCF convergence failure will abort job
redata: Performing Pulay mixing using    =    10 iterations
redata: Mix DM in first SCF step ?       =     F
redata: Write Pulay info on disk?        =     F
redata: Discard 1st Pulay DM after  kick =     F
redata: New DM Mixing Weight             =     0.0500
redata: New DM Occupancy tolerance       = 0.000000000001
redata: No kicks to SCF
redata: DM Mixing Weight for Kicks       =     0.5000
redata: DM Tolerance for SCF             =     0.000100
redata: Require Energy convergence for SCF =     F
redata: DM Energy tolerance for SCF      =     0.000100 eV
redata: Require Harris convergence for SCF =     F
redata: DM Harris energy tolerance for SCF =     0.000100 eV
redata: Using Saved Data (generic)   =     F
redata: Use continuation files for DM    =     T
redata: Neglect nonoverlap interactions  =     F
redata: Method of Calculation            =     Diagonalization
redata: Divide and Conquer               =     T
redata: Electronic Temperature           =     0.0019  Ry
redata: Fix the spin of the system       =     F
redata: Dynamics option                  =     Verlet MD run
redata: Initial MD time step             =        1
redata:   Final MD time step             =        1
redata: Length of MD time step           =     1.0000  fs
redata: Initial Temperature of MD run    =     0.0000  K
redata: Perform a MD quench              =     F
redata: ***********************************************************************
Total number of electrons:   268.000000
Total ionic charge:   268.000000

* ProcessorY, Blocksize:    2  24

k-point displ. along   1 input, could be:     0.50    0.00
k-point displ. along   2 input, could be:     0.50    0.00
 Kpoints in:          231 . Kpoints trimmed:          231

siesta: k-grid: Number of k-points =   231
siesta: k-grid: Cutoff (effective) =     5.000 Ang
siesta: k-grid: Supercell and displacements
siesta: k-grid:   21   0   0      0.500
siesta: k-grid:    0  21   0      0.500
siesta: k-grid:    0   0   1      0.000
Naive supercell factors:     2    2    2

superc: Internal auxiliary supercell:     2 x     2 x     2  =       8
superc: Number of atoms, orbitals, and projectors:    576   7488   9216

* Maximum dynamic memory allocated =     4 MB

siesta:                 ==============================
                            Begin MD step =      1
                        ==============================

superc: Internal auxiliary supercell:     2 x     2 x     2  =       8
superc: Number of atoms, orbitals, and projectors:    576   7488   9216

outcell: Unit cell vectors (Ang):
       12.804619    7.392750    0.000000
        0.000000   14.785500    0.000000
        0.000000    0.000000   10.000000

outcell: Cell vector modules (Ang)   :   14.785500   14.785500   10.000000
outcell: Cell angles (23,13,12) (deg):     90.0000     90.0000     60.0000
outcell: Cell volume (Ang**3)        :   1893.2269
New_DM. Step:     1
Initializing Density Matrix...

InitMesh: MESH =   120 x   120 x    90 =     1296000
InitMesh: Mesh cutoff (required, used) =   200.000   223.865 Ry

* Maximum dynamic memory allocated =   220 MB

stepf: Fermi-Dirac step function

siesta: Program's energy decomposition (eV):
siesta: Ebs     =     -5554.409213
siesta: Eions   =     15841.876847
siesta: Ena     =      4255.704914
siesta: Ekin    =      5323.417823
siesta: Enl     =       805.073103
siesta: DEna    =        -0.000008
siesta: DUscf   =         0.000000
siesta: DUext   =         0.000000
siesta: Exc     =     -4208.897423
siesta: eta*DQ  =         0.000000
siesta: Emadel  =         0.000000
siesta: Emeta   =         0.000000
siesta: Emolmec =         0.000000
siesta: Ekinion =         0.000000
siesta: Eharris =     -9364.373012
siesta: Etot    =     -9666.578438
siesta: FreeEng =     -9666.578438

siesta: iscf   Eharris(eV)      E_KS(eV)   FreeEng(eV)   dDmax  Ef(eV)
siesta:    1    -9364.3730    -9666.5784    -9666.5784  7.7275 -8.4684
timer: Routine,Calls,Time,% = IterSCF        1    4501.312  99.74
elaps: Routine,Calls,Wall,% = IterSCF        1     563.346  99.74
siesta:    2   -13516.9940    -8630.3736    -8630.4165 20.0798 -2.4004
siesta:    3    -9293.7855    -9536.6415    -9536.7049  4.2848 -6.9376
siesta:    4    -9275.5863    -9386.4969    -9386.5428  1.4403 -5.5479
siesta:    5    -9240.4194    -9312.1310    -9312.1619  0.8896 -5.3588
siesta:    6    -9221.3754    -9261.4326    -9261.4798  0.7492 -5.2392
siesta:    7    -9211.4590    -9246.4402    -9246.5152  0.6711 -5.2714
siesta:    8    -9206.2483    -9228.5672    -9228.6166  0.5635 -5.2221
siesta:    9    -9205.7989    -9212.8310    -9212.8816  0.6512 -5.2168
siesta:   10    -9204.9330    -9207.4335    -9207.4804  0.4802 -5.2305
siesta:   11    -9204.6693    -9192.7220    -9192.7918  0.4142 -5.2081
siesta:   12    -9204.4744    -9179.1487    -9179.2262  0.2841 -5.1560
siesta:   13    -9204.2936    -9175.7323    -9175.8047  0.2330 -5.1129
siesta:   14    -9203.8472    -9179.9701    -9180.0414  0.1564 -5.1434
siesta:   15    -9203.4314    -9182.7050    -9182.7580  0.1154 -5.1544
siesta:   16    -9203.2313    -9189.0183    -9189.0713  0.1031 -5.1825
siesta:   17    -9203.1050    -9190.8533    -9190.9064  0.0790 -5.1885
siesta:   18    -9203.0788    -9195.0511    -9195.1152  0.0657 -5.1981
siesta:   19    -9203.0770    -9199.9967    -9200.0613  0.0467 -5.2145
siesta:   20    -9203.0666    -9201.5172    -9201.5808  0.0389 -5.2164
siesta:   21    -9203.0670    -9203.0735    -9203.1379  0.0303 -5.2103
siesta:   22    -9203.0625    -9203.9306    -9203.9946  0.0168 -5.1933
siesta:   23    -9203.0606    -9203.8515    -9203.9159  0.0116 -5.1851
siesta:   24    -9203.0589    -9203.9807    -9204.0444  0.0093 -5.1842
siesta:   25    -9203.0589    -9203.7845    -9203.8490  0.0119 -5.1849
siesta:   26    -9203.0587    -9203.6519    -9203.7156  0.0122 -5.1838
siesta:   27    -9203.0581    -9203.4202    -9203.4840  0.0078 -5.1829
siesta:   28    -9203.0580    -9203.2489    -9203.3132  0.0028 -5.1837
siesta:   29    -9203.0579    -9203.2585    -9203.3228  0.0011 -5.1847
siesta:   30    -9203.0579    -9203.2387    -9203.3030  0.0008 -5.1850
siesta:   31    -9203.0579    -9203.1672    -9203.2314  0.0008 -5.1848
siesta:   32    -9203.0580    -9203.1040    -9203.1681  0.0006 -5.1847
siesta:   33    -9203.0580    -9203.0810    -9203.1451  0.0004 -5.1846
siesta:   34    -9203.0580    -9203.0681    -9203.1322  0.0004 -5.1845
siesta:   35    -9203.0580    -9203.0647    -9203.1288  0.0003 -5.1846
siesta:   36    -9203.0580    -9203.0385    -9203.1027  0.0002 -5.1847
siesta:   37    -9203.0579    -9203.0441    -9203.1083  0.0001 -5.1847

siesta: E_KS(eV) =            -9203.0481

siesta: E_KS - E_eggbox =     -9203.0481

siesta: Atomic forces (eV/Ang):
----------------------------------------
   Tot    0.000350   -0.040094    0.000000
----------------------------------------
   Max  570.620149
   Res  157.328135    sqrt( Sum f_i^2 / 3N )
----------------------------------------
   Max  570.620149    constrained

Stress-tensor-Voigt (kbar):     -837.72    -2864.49       -0.71       -0.43        0.00        0.00
(Free)E + p*V (eV/cell)    -7744.5990
Target enthalpy (eV/cell)    -9203.1123

siesta: Stress tensor (static) (eV/Ang**3):
        -0.522857   -0.000267    0.000000
        -0.000267   -1.787855    0.000000
         0.000000    0.000000   -0.000443

siesta: Pressure (static):       1234.30592324  kBar

siesta: Stress tensor (total) (eV/Ang**3):
        -0.522857   -0.000267    0.000000
        -0.000267   -1.787855    0.000000
         0.000000    0.000000   -0.000443

siesta: Pressure (total):       1234.30592324  kBar

siesta: Temp_ion =       0.000 K

* Maximum dynamic memory allocated =   237 MB
Computing bands...

siesta: Program's energy decomposition (eV):
siesta: Ebs     =     -4207.496245
siesta: Eions   =     15841.876847
siesta: Ena     =      4255.704914
siesta: Ekin    =      8262.040550
siesta: Enl     =      -795.044082
siesta: DEna    =      -809.539550
siesta: DUscf   =       108.496109
siesta: DUext   =         0.000000
siesta: Exc     =     -4382.829202
siesta: eta*DQ  =         0.000000
siesta: Emadel  =         0.000000
siesta: Emeta   =         0.000000
siesta: Emolmec =         0.000000
siesta: Ekinion =         0.000000
siesta: Eharris =     -9203.057946
siesta: Etot    =     -9203.048108
siesta: FreeEng =     -9203.112251

siesta: Final energy (eV):
siesta:  Band Struct. =   -4207.496245
siesta:       Kinetic =    8262.040550
siesta:       Hartree =   27563.397525
siesta:    Ext. field =       0.000000
siesta:   Exch.-corr. =   -4382.829202
siesta:  Ion-electron =  -63129.710341
siesta:       Ion-ion =   22484.053359
siesta:       Ekinion =       0.000000
siesta:         Total =   -9203.048108

siesta: Atomic forces (eV/Ang):
siesta:      1    0.081881 -114.122317    0.000000
siesta:      2   -0.629121   -4.245845    0.000000
siesta:      3    2.809453   -2.474632    0.000000
siesta:      4    2.763907    2.477978    0.000000
siesta:      5   -0.125820   -3.360166    0.000000
siesta:      6   -0.443046    0.387197    0.000000
siesta:      7   -0.668861   -0.471911    0.000000
siesta:      8    0.699346   -4.766216    0.000000
siesta:      9    0.390970    0.534404    0.000000
siesta:     10    0.581763   -0.719875    0.000000
siesta:     11   -4.876665   -6.754303    0.000000
siesta:     12    1.036450    0.020064    0.000000
siesta:     13    1.211721   -0.097896    0.000000
siesta:     14   -6.034687   -2.674825    0.000000
siesta:     15   -6.062442    2.715138    0.000000
siesta:     16   -5.036341    6.740665    0.000000
siesta:     17   -0.376236    4.538081    0.000000
siesta:     18   -0.056685    5.068623    0.000000
siesta:     19    0.446681    5.161403    0.000000
siesta:     20    0.043013 -404.024367    0.000000
siesta:     21    0.019751  555.835951    0.000000
siesta:     22    1.869001  128.657400    0.000000
siesta:     23  -16.829588 -548.236134    0.000000
siesta:     24   -1.775086  128.791031    0.000000
siesta:     25   17.263354 -548.042000    0.000000
siesta:     26   26.276373    4.138061    0.000000
siesta:     27   32.179098 -548.736893    0.000000
siesta:     28    2.146889    1.145296    0.000000
siesta:     29   -1.837000    1.599601    0.000000
siesta:     30    6.659678    3.482846    0.000000
siesta:     31   -1.557282    0.124153    0.000000
siesta:     32  -26.439461    4.204427    0.000000
siesta:     33  -32.180482 -548.811622    0.000000
siesta:     34   10.375061  542.529788    0.000000
siesta:     35   -1.157267 -128.904833    0.000000
siesta:     36   32.647581  548.503049    0.000000
siesta:     37   26.153184   -4.782349    0.000000
siesta:     38   -2.012757   -1.692816    0.000000
siesta:     39    2.460736   -0.992203    0.000000
siesta:     40   -1.687513   -0.268914    0.000000
siesta:     41    6.661527   -3.422119    0.000000
siesta:     42   -0.338934    5.522965    0.000000
siesta:     43   -0.347793   -5.521437    0.000000
siesta:     44  -10.382067  542.686787    0.000000
siesta:     45    1.264996 -128.884516    0.000000
siesta:     46   -0.191140  548.294146    0.000000
siesta:     47   -0.152484 -127.690407    0.000000
siesta:     48   24.661608  556.928907    0.000000
siesta:     49   24.220595   -3.383960    0.000000
siesta:     50   -1.573930   -2.505764    0.000000
siesta:     51  -32.792915  548.701319    0.000000
siesta:     52  -26.334962   -4.899955    0.000000
siesta:     53  -24.486720  557.434043    0.000000
siesta:     54  -24.149203   -3.572465    0.000000
siesta:     55   -0.044437  407.827247    0.000000
siesta:     56    2.408296   -1.634921    0.000000
siesta:     57   -2.871269   -2.019469    0.000000
siesta:     58    1.363319   -2.040303    0.000000
siesta:     59    2.752779   -1.505487    0.000000
siesta:     60    2.734015    1.397992    0.000000
siesta:     61   -1.270587    1.572423    0.000000
siesta:     62    0.013090 -570.620149    0.000000
siesta:     63    1.128286    1.146986    0.000000
siesta:     64   18.919725    7.263902    0.000000
siesta:     65   32.512195 -556.723315    0.000000
siesta:     66  -18.915876    7.355058    0.000000
siesta:     67  -32.356637 -556.976442    0.000000
siesta:     68   -2.637906    2.195492    0.000000
siesta:     69    2.318650    1.582971    0.000000
siesta:     70   -0.150245  132.466180    0.000000
siesta:     71   -0.021395 -550.766225    0.000000
siesta:     72   -0.269785  127.275387    0.000000
siesta: ----------------------------------------
siesta:    Tot    0.000350   -0.040094    0.000000

siesta: Stress tensor (static) (eV/Ang**3):
siesta:    -0.522857   -0.000267    0.000000
siesta:    -0.000267   -1.787855    0.000000
siesta:     0.000000    0.000000   -0.000443

siesta: Cell volume =       1893.226884 Ang**3

siesta: Pressure (static):
siesta:                Solid            Molecule  Units
siesta:           0.00839047          0.12179218  Ry/Bohr**3
siesta:           0.77038483         11.18254402  eV/Ang**3
siesta:        1234.30592324      17916.60439304  kBar
(Free)E+ p_basis*V_orbitals  =       -9166.055566
(Free)Eharris+ p_basis*V_orbitals  =       -9166.069385

siesta: Electric dipole (a.u.)  =    0.000000    0.000000    0.000000
siesta: Electric dipole (Debye) =    0.000000    0.000000    0.000000

* Maximum dynamic memory allocated : Node    0 =   237 MB
* Maximum dynamic memory allocated : Node    1 =    83 MB
* Maximum dynamic memory allocated : Node    2 =    86 MB
* Maximum dynamic memory allocated : Node    3 =   225 MB
* Maximum dynamic memory allocated : Node    4 =   231 MB
* Maximum dynamic memory allocated : Node    5 =    83 MB
* Maximum dynamic memory allocated : Node    6 =    85 MB
* Maximum dynamic memory allocated : Node    7 =   212 MB

* Maximum memory occured during matrixMtoO                    

timer: CPU execution times:
timer:  Routine       Calls   Time/call    Tot.time        %
timer:  siesta            1  165247.952  165247.952   100.00
timer:  Setup             1       2.988       2.988     0.00
timer:  bands             3     269.677     809.032     0.49
timer:  writewave         1       0.018       0.018     0.00
timer:  KSV_init          1       0.001       0.001     0.00
timer:  IterMD            1  164430.058  164430.058    99.51
timer:  hsparse           1       0.391       0.391     0.00
timer:  overlap           1       7.786       7.786     0.00
timer:  IterSCF          37    4438.006  164206.204    99.37
timer:  kinefsm           2       4.038       8.075     0.00
timer:  nlefsm            2      21.119      42.238     0.03
timer:  DHSCF            38     118.710    4510.963     2.73
timer:  DHSCF1            1       1.002       1.002     0.00
timer:  DHSCF2            1      44.214      44.214     0.03
timer:  REORD           306       0.010       3.074     0.00
timer:  POISON           39       2.252      87.829     0.05
timer:  DHSCF3           38     116.328    4420.469     2.68
timer:  rhoofd           38      25.683     975.943     0.59
timer:  cellXC           38       3.505     133.200     0.08
timer:  vmat             38      57.095    2169.608     1.31
timer:  MolMec            2       0.001       0.001     0.00
timer:  diagon           37    4318.027  159766.987    96.68
timer:  c-eigval       8668       6.688   57974.950    35.08
timer:  c-buildHS      8668       0.123    1066.987     0.65
timer:  cdiag         17215       6.941  119484.991    72.31
timer:  cdiag1        17215       0.426    7331.115     4.44
timer:  cdiag2        17215       1.912   32907.367    19.91
timer:  cdiag3        17215       3.948   67966.173    41.13
timer:  cdiag4        17215       0.226    3889.875     2.35
timer:  c-eigvec       8547       7.383   63105.494    38.19
timer:  c-buildD       8547       4.615   39445.428    23.87
timer:  DHSCF4            1      43.311      43.311     0.03
timer:  dfscf             1      40.619      40.619     0.02
timer:  overfsm           1       0.484       0.484     0.00
timer:  optical           1       5.123       5.123     0.00
  

elaps: ELAPSED times:
elaps:  Routine       Calls   Time/call    Tot.time        %
elaps:  siesta            1   20679.680   20679.680   100.00
elaps:  Setup             1       0.375       0.375     0.00
elaps:  bands             3      33.762     101.285     0.49
elaps:  writewave         1       0.002       0.002     0.00
elaps:  KSV_init          1       0.000       0.000     0.00
elaps:  IterMD            1   20577.343   20577.343    99.51
elaps:  hsparse           1       0.051       0.051     0.00
elaps:  overlap           1       0.974       0.974     0.00
elaps:  IterSCF          37     555.388   20549.345    99.37
elaps:  kinefsm           2       0.506       1.012     0.00
elaps:  nlefsm            2       2.786       5.572     0.03
elaps:  DHSCF            38      14.985     569.417     2.75
elaps:  DHSCF1            1       0.130       0.130     0.00
elaps:  DHSCF2            1       5.526       5.526     0.03
elaps:  REORD           306       0.001       0.413     0.00
elaps:  POISON           39       0.282      10.990     0.05
elaps:  DHSCF3           38      14.553     553.011     2.67
elaps:  rhoofd           38       6.600     250.794     1.21
elaps:  cellXC           38       0.438      16.633     0.08
elaps:  vmat             38       7.142     271.405     1.31
elaps:  MolMec            2       0.000       0.000     0.00
elaps:  diagon           37     540.405   19994.986    96.69
elaps:  c-eigval       8668       0.837    7253.781    35.08
elaps:  c-buildHS      8668       0.017     146.022     0.71
elaps:  cdiag         17215       0.853   14690.443    71.04
elaps:  cdiag1        17215       0.053     911.330     4.41
elaps:  cdiag2        17215       0.239    4117.609    19.91
elaps:  cdiag3        17215       0.495    8515.936    41.18
elaps:  cdiag4        17215       0.028     488.290     2.36
elaps:  c-eigvec       8547       0.899    7682.906    37.15
elaps:  c-buildD       8547       0.603    5150.287    24.91
elaps:  DHSCF4            1      10.476      10.476     0.05
elaps:  dfscf             1       9.950       9.950     0.05
elaps:  overfsm           1       0.060       0.060     0.00
elaps:  optical           1       0.000       0.000     0.00
  
>> End of run:  27-APR-2016  17:14:55
