Siesta Version:                                        siesta-3.2-pl-3
Architecture  : x86_64-unknown-linux-gnu--unknown
Compiler flags: mpiifort -g -O2 -fPIC -xSSE4.1 -fp-model source -shared-intel 
PARALLEL version

* Running on   12 nodes in parallel
>> Start of run:   5-MAY-2016  11:05:18

                           ***********************       
                           *  WELCOME TO SIESTA  *       
                           ***********************       

reinit: Reading from standard input
************************** Dump of input data file ****************************
#(1) General system descriptors
SystemName            GRP_doping    # Descriptive name of the system
SystemLabel           GRP_doping    # Short name for naming files
%include STRUCT.fdf
%include KPT.fdf
%include BASIS.fdf
#%include TS.fdf # for transiesta calculation
#(4) DFT, Grid, SCF
XC.functional         GGA           # LDA or GGA (default = LDA)
XC.authors            PBE           # CA (Ceperley-Aldr) = PZ
                                    #    (Perdew-Zunger) - LDA - Default
                                    # PW92 (Perdew-Wang-92) - LDA
                                    # PBE (Perdew-Burke-Ernzerhof) - GGA
MeshCutoff            200.000000    Ry      # Default: 50.0 Ry ~ 0.444 Bohr
                                    #         100.0 Ry ~ 0.314 Bohr
MaxSCFIterations      500           # Default: 50
DM.MixingWeight       0.05          # Default: 0.25
DM.NumberPulay        10            # Default: 0
DM.PulayOnFile        F             # SystemLabel.P1, SystemLabel.P2
DM.Tolerance          1.d-4         # Default: 1.d-4
DM.UseSaveDM          .true.        # because of the bug
SCFMustConverge       .true.
NeglNonOverlapInt     F             # Default: F
#(5) Eigenvalue problem: order-N or diagonalization
SolutionMethod        Diagon        # or Transiesta
ElectronicTemperature 300.0 K       # Default: 300.0 K
#(6) Molecular dynamics and relaxations
#MD.TypeOfRun          CG            # Type of dynamics:
#MD.VariableCell       F
#MD.NumCGsteps         0           # 0 for single-point / 100 for gopt
#MD.MaxCGDispl         0.2 Bohr      # Default: 0.2 Bohr
#MD.MaxForceTol        0.02 eV/Ang   # Default: 0.04 eV/Ang
#MD.MaxStressTol       1.0 GPa       # Default: 1.0 GPa
# Geometry Constraints
#%block GeometryConstraints
#	position from 1 to 44
#%endblock GeometryConstraints
BandLinesScale   pi/a
%block BandLines
 1   0.00000000  0.00000000  0.00000000
50   0.00000000  0.07809418  0.00000000
50   0.04509075  0.07809242  0.00000000
20   0.00000000  0.00000000  0.00000000
%endblock BandLines
************************** End of input data file *****************************

reinit: -----------------------------------------------------------------------
reinit: System Name: GRP_doping
reinit: -----------------------------------------------------------------------
reinit: System Label: GRP_doping                                                  
reinit: -----------------------------------------------------------------------

initatom: Reading input for the pseudopotentials and atomic orbitals ----------
 Species number:            1  Label: B Atomic number:           5
 Species number:            2  Label: C Atomic number:           6
Ground state valence configuration:   2s02  2p01
Reading pseudopotential information in formatted form from B.psf

Valence configuration for pseudopotential generation:
2s( 2.00) rc: 1.74
2p( 1.00) rc: 1.74
3d( 0.00) rc: 1.74
4f( 0.00) rc: 1.74
Ground state valence configuration:   2s02  2p02
Reading pseudopotential information in formatted form from C.psf

Valence configuration for pseudopotential generation:
2s( 2.00) rc: 1.54
2p( 2.00) rc: 1.54
3d( 0.00) rc: 1.54
4f( 0.00) rc: 1.54
For B, standard SIESTA heuristics set lmxkb to 3
 (one more than the basis l, including polarization orbitals).
Use PS.lmax or PS.KBprojectors blocks to override.
For C, standard SIESTA heuristics set lmxkb to 3
 (one more than the basis l, including polarization orbitals).
Use PS.lmax or PS.KBprojectors blocks to override.

<basis_specs>
===============================================================================
B                    Z=   5    Mass=  10.810        Charge= 0.17977+309
Lmxo=1 Lmxkb= 3    BasisType=split      Semic=F
L=0  Nsemic=0  Cnfigmx=2
          n=1  nzeta=2  polorb=0
            splnorm:   0.15000    
               vcte:    0.0000    
               rinn:    0.0000    
                rcs:    0.0000      0.0000    
            lambdas:    1.0000      1.0000    
L=1  Nsemic=0  Cnfigmx=2
          n=1  nzeta=2  polorb=1
            splnorm:   0.15000    
               vcte:    0.0000    
               rinn:    0.0000    
                rcs:    0.0000      0.0000    
            lambdas:    1.0000      1.0000    
-------------------------------------------------------------------------------
L=0  Nkbl=1  erefs: 0.17977+309
L=1  Nkbl=1  erefs: 0.17977+309
L=2  Nkbl=1  erefs: 0.17977+309
L=3  Nkbl=1  erefs: 0.17977+309
===============================================================================
</basis_specs>

atom: Called for B                     (Z =   5)

read_vps: Pseudopotential generation method:
read_vps: ATM3      Troullier-Martins                       
Total valence charge:    3.00000

read_vps: Pseudopotential includes a core correction:
read_vps: Pseudo-core for xc-correction

xc_check: Exchange-correlation functional:
xc_check: GGA Perdew, Burke & Ernzerhof 1996
V l=0 = -2*Zval/r beyond r=  1.7165
V l=1 = -2*Zval/r beyond r=  1.7165
V l=2 = -2*Zval/r beyond r=  1.7165
V l=3 = -2*Zval/r beyond r=  1.6951
All V_l potentials equal beyond r=  1.7165
This should be close to max(r_c) in ps generation
All pots = -2*Zval/r beyond r=  1.7165

VLOCAL1: 99.0% of the norm of Vloc inside     14.733 Ry
VLOCAL1: 99.9% of the norm of Vloc inside     33.577 Ry
atom: Maximum radius for 4*pi*r*r*local-pseudopot. charge    2.04484
atom: Maximum radius for r*vlocal+2*Zval:    1.75994
GHOST: No ghost state for L =  0
GHOST: No ghost state for L =  1
GHOST: No ghost state for L =  2
GHOST: No ghost state for L =  3

KBgen: Kleinman-Bylander projectors: 
   l= 0   rc=  1.897051   el= -0.693730   Ekb=  4.595746   kbcos=  0.286105
   l= 1   rc=  1.920920   el= -0.265236   Ekb= -2.350715   kbcos= -0.315747
   l= 2   rc=  2.044840   el=  0.002055   Ekb= -0.690767   kbcos= -0.013822
   l= 3   rc=  2.149707   el=  0.003188   Ekb= -0.315358   kbcos= -0.002055

KBgen: Total number of  Kleinman-Bylander projectors:   16
atom: -------------------------------------------------------------------------

atom: SANKEY-TYPE ORBITALS:
atom: Selected multiple-zeta basis: split     

SPLIT: Orbitals with angular momentum L= 0

SPLIT: Basis orbitals for state 2s

SPLIT: PAO cut-off radius determined from an
SPLIT: energy shift=  0.007350 Ry

   izeta = 1
                 lambda =    1.000000
                     rc =    5.422032
                 energy =   -0.686029
                kinetic =    0.576707
    potential(screened) =   -1.262736
       potential(ionic) =   -3.271094

   izeta = 2
                 rmatch =    4.222573
              splitnorm =    0.150000
                 energy =   -0.602132
                kinetic =    0.858975
    potential(screened) =   -1.461107
       potential(ionic) =   -3.582536

SPLIT: Orbitals with angular momentum L= 1

SPLIT: Basis orbitals for state 2p

SPLIT: PAO cut-off radius determined from an
SPLIT: energy shift=  0.007350 Ry

   izeta = 1
                 lambda =    1.000000
                     rc =    6.790259
                 energy =   -0.258578
                kinetic =    1.481412
    potential(screened) =   -1.739989
       potential(ionic) =   -3.657461

   izeta = 2
                 rmatch =    4.608740
              splitnorm =    0.150000
                 energy =   -0.173757
                kinetic =    2.186690
    potential(screened) =   -2.360447
       potential(ionic) =   -4.464260

POLgen: Perturbative polarization orbital with L=  2

POLgen: Polarization orbital for state 2p

   izeta = 1
                     rc =    6.790259
                 energy =    0.684082
                kinetic =    1.471481
    potential(screened) =   -0.787399
       potential(ionic) =   -2.406985
atom: Total number of Sankey-type orbitals: 13

atm_pop: Valence configuration (for local Pseudopot. screening):
 2s( 2.00)                                                            
 2p( 1.00)                                                            
Vna: chval, zval:    3.00000   3.00000

Vna:  Cut-off radius for the neutral-atom potential:   6.790259
comcore: Pseudo-core radius Rcore=  2.122997

atom: _________________________________________________________________________

<basis_specs>
===============================================================================
C                    Z=   6    Mass=  12.010        Charge= 0.17977+309
Lmxo=1 Lmxkb= 3    BasisType=split      Semic=F
L=0  Nsemic=0  Cnfigmx=2
          n=1  nzeta=2  polorb=0
            splnorm:   0.15000    
               vcte:    0.0000    
               rinn:    0.0000    
                rcs:    0.0000      0.0000    
            lambdas:    1.0000      1.0000    
L=1  Nsemic=0  Cnfigmx=2
          n=1  nzeta=2  polorb=1
            splnorm:   0.15000    
               vcte:    0.0000    
               rinn:    0.0000    
                rcs:    0.0000      0.0000    
            lambdas:    1.0000      1.0000    
-------------------------------------------------------------------------------
L=0  Nkbl=1  erefs: 0.17977+309
L=1  Nkbl=1  erefs: 0.17977+309
L=2  Nkbl=1  erefs: 0.17977+309
L=3  Nkbl=1  erefs: 0.17977+309
===============================================================================
</basis_specs>

atom: Called for C                     (Z =   6)

read_vps: Pseudopotential generation method:
read_vps: ATM3      Troullier-Martins                       
Total valence charge:    4.00000

read_vps: Pseudopotential includes a core correction:
read_vps: Pseudo-core for xc-correction

xc_check: Exchange-correlation functional:
xc_check: GGA Perdew, Burke & Ernzerhof 1996
V l=0 = -2*Zval/r beyond r=  1.5227
V l=1 = -2*Zval/r beyond r=  1.5227
V l=2 = -2*Zval/r beyond r=  1.5227
V l=3 = -2*Zval/r beyond r=  1.5038
All V_l potentials equal beyond r=  1.5227
This should be close to max(r_c) in ps generation
All pots = -2*Zval/r beyond r=  1.5227

VLOCAL1: 99.0% of the norm of Vloc inside     18.722 Ry
VLOCAL1: 99.9% of the norm of Vloc inside     42.668 Ry
atom: Maximum radius for 4*pi*r*r*local-pseudopot. charge    1.83678
atom: Maximum radius for r*vlocal+2*Zval:    1.58088
GHOST: No ghost state for L =  0
GHOST: No ghost state for L =  1
GHOST: No ghost state for L =  2
GHOST: No ghost state for L =  3

KBgen: Kleinman-Bylander projectors: 
   l= 0   rc=  1.704034   el= -1.009801   Ekb=  5.335044   kbcos=  0.316824
   l= 1   rc=  1.704034   el= -0.388707   Ekb= -3.785862   kbcos= -0.366464
   l= 2   rc=  1.791422   el=  0.001971   Ekb= -0.970471   kbcos= -0.009212
   l= 3   rc=  1.859892   el=  0.003065   Ekb= -0.399525   kbcos= -0.001223

KBgen: Total number of  Kleinman-Bylander projectors:   16
atom: -------------------------------------------------------------------------

atom: SANKEY-TYPE ORBITALS:
atom: Selected multiple-zeta basis: split     

SPLIT: Orbitals with angular momentum L= 0

SPLIT: Basis orbitals for state 2s

SPLIT: PAO cut-off radius determined from an
SPLIT: energy shift=  0.007350 Ry

   izeta = 1
                 lambda =    1.000000
                     rc =    4.632753
                 energy =   -1.002270
                kinetic =    0.855760
    potential(screened) =   -1.858031
       potential(ionic) =   -5.417575

   izeta = 2
                 rmatch =    3.431921
              splitnorm =    0.150000
                 energy =   -0.867111
                kinetic =    1.300804
    potential(screened) =   -2.167915
       potential(ionic) =   -5.962684

SPLIT: Orbitals with angular momentum L= 1

SPLIT: Basis orbitals for state 2p

SPLIT: PAO cut-off radius determined from an
SPLIT: energy shift=  0.007350 Ry

   izeta = 1
                 lambda =    1.000000
                     rc =    5.658549
                 energy =   -0.381140
                kinetic =    2.399701
    potential(screened) =   -2.780841
       potential(ionic) =   -6.206085

   izeta = 2
                 rmatch =    3.653288
              splitnorm =    0.150000
                 energy =   -0.249149
                kinetic =    3.542762
    potential(screened) =   -3.791911
       potential(ionic) =   -7.581078

POLgen: Perturbative polarization orbital with L=  2

POLgen: Polarization orbital for state 2p

   izeta = 1
                     rc =    5.658549
                 energy =    1.109913
                kinetic =    2.304789
    potential(screened) =   -1.194876
       potential(ionic) =   -4.013592
atom: Total number of Sankey-type orbitals: 13

atm_pop: Valence configuration (for local Pseudopot. screening):
 2s( 2.00)                                                            
 2p( 2.00)                                                            
Vna: chval, zval:    4.00000   4.00000

Vna:  Cut-off radius for the neutral-atom potential:   5.658549
comcore: Pseudo-core radius Rcore=  1.791422

atom: _________________________________________________________________________

prinput: Basis input ----------------------------------------------------------

PAO.BasisType split     

%block ChemicalSpeciesLabel
    1    5 B                       # Species index, atomic number, species label
    2    6 C                       # Species index, atomic number, species label
%endblock ChemicalSpeciesLabel

%block PAO.Basis                 # Define Basis set
B                     2                    # Species label, number of l-shells
 n=2   0   2                         # n, l, Nzeta 
   5.422      4.223   
   1.000      1.000   
 n=2   1   2 P   1                   # n, l, Nzeta, Polarization, NzetaPol
   6.790      4.609   
   1.000      1.000   
C                     2                    # Species label, number of l-shells
 n=2   0   2                         # n, l, Nzeta 
   4.633      3.432   
   1.000      1.000   
 n=2   1   2 P   1                   # n, l, Nzeta, Polarization, NzetaPol
   5.659      3.653   
   1.000      1.000   
%endblock PAO.Basis

prinput: ----------------------------------------------------------------------

coor:   Atomic-coordinates input format  =     Fractional

siesta: Atomic coordinates (Bohr) and species
siesta:     -2.35420  38.89134   0.00000  1        1
siesta:     -4.68258  34.85847   0.00000  1        2
siesta:      9.28770  18.72698   0.00000  1        3
siesta:      4.63094  21.41544   0.00000  1        4
siesta:      2.30256  22.75985   0.00000  1        5
siesta:     -2.35420  25.44831   0.00000  1        6
siesta:    -11.66772  22.75985   0.00000  1        7
siesta:     -9.33934  26.79272   0.00000  1        8
siesta:     -9.33934  29.48119   0.00000  1        9
siesta:     -4.68258  26.79272   0.00000  1       10
siesta:     -7.01096  30.82560   0.00000  1       11
siesta:     -0.02582  42.92421   0.00000  1       12
siesta:     -0.02582   2.59549   0.00000  2       13
siesta:     -0.02582   5.28395   0.00000  2       14
siesta:     -2.35420  41.57980   0.00000  2       15
siesta:      2.30256  38.89134   0.00000  2       16
siesta:      2.30256  41.57980   0.00000  2       17
siesta:      4.63094  34.85847   0.00000  2       18
siesta:      4.63094  37.54693   0.00000  2       19
siesta:      6.95932  30.82560   0.00000  2       20
siesta:      6.95932  33.51406   0.00000  2       21
siesta:      9.28770  26.79272   0.00000  2       22
siesta:      9.28770  29.48119   0.00000  2       23
siesta:     -4.68258  37.54693   0.00000  2       24
siesta:      2.30256   6.62836   0.00000  2       25
siesta:      2.30256   9.31683   0.00000  2       26
siesta:      4.63094  10.66124   0.00000  2       27
siesta:      4.63094  13.34970   0.00000  2       28
siesta:      6.95932  14.69411   0.00000  2       29
siesta:      6.95932  17.38257   0.00000  2       30
siesta:      9.28770  21.41544   0.00000  2       31
siesta:     11.61608  22.75985   0.00000  2       32
siesta:     11.61608  25.44831   0.00000  2       33
siesta:     -2.35420   6.62836   0.00000  2       34
siesta:     -2.35420   9.31683   0.00000  2       35
siesta:     -0.02582  10.66124   0.00000  2       36
siesta:     -0.02582  13.34970   0.00000  2       37
siesta:      2.30256  14.69411   0.00000  2       38
siesta:      2.30256  17.38257   0.00000  2       39
siesta:      4.63094  18.72698   0.00000  2       40
siesta:      6.95932  22.75985   0.00000  2       41
siesta:      6.95932  25.44831   0.00000  2       42
siesta:     -4.68258  10.66124   0.00000  2       43
siesta:     -4.68258  13.34970   0.00000  2       44
siesta:     -2.35420  14.69411   0.00000  2       45
siesta:     -2.35420  17.38257   0.00000  2       46
siesta:     -0.02582  18.72698   0.00000  2       47
siesta:     -0.02582  21.41544   0.00000  2       48
siesta:      2.30256  25.44831   0.00000  2       49
siesta:     -7.01096  14.69411   0.00000  2       50
siesta:     -7.01096  17.38257   0.00000  2       51
siesta:     -4.68258  18.72698   0.00000  2       52
siesta:     -4.68258  21.41544   0.00000  2       53
siesta:     -2.35420  22.75985   0.00000  2       54
siesta:     -9.33934  18.72698   0.00000  2       55
siesta:     -9.33934  21.41544   0.00000  2       56
siesta:     -7.01096  22.75985   0.00000  2       57
siesta:     -7.01096  25.44831   0.00000  2       58
siesta:    -11.66772  25.44831   0.00000  2       59
siesta:      4.63094  26.79272   0.00000  2       60
siesta:      4.63094  29.48119   0.00000  2       61
siesta:     -0.02582  26.79272   0.00000  2       62
siesta:     -0.02582  29.48119   0.00000  2       63
siesta:     -4.68258  29.48119   0.00000  2       64
siesta:      2.30256  30.82560   0.00000  2       65
siesta:      2.30256  33.51406   0.00000  2       66
siesta:     -2.35420  30.82560   0.00000  2       67
siesta:     -2.35420  33.51406   0.00000  2       68
siesta:     -7.01096  33.51406   0.00000  2       69
siesta:     -0.02582  34.85847   0.00000  2       70
siesta:     -0.02582  37.54693   0.00000  2       71
siesta:     -0.02582  45.61267   0.00000  2       72

siesta: System type = slab      

initatomlists: Number of atoms, orbitals, and projectors:     72   936  1152

siesta: ******************** Simulation parameters ****************************
siesta:
siesta: The following are some of the parameters of the simulation.
siesta: A complete list of the parameters used, including default values,
siesta: can be found in file out.fdf
siesta:
redata: Non-Collinear-spin run           =     F
redata: SpinPolarized (Up/Down) run      =     F
redata: Number of spin components        =     1
redata: Long output                      =     F
redata: Number of Atomic Species         =        2
redata: Charge density info will appear in .RHO file
redata: Write Mulliken Pop.              =     NO
redata: Mesh Cutoff                      =   200.0000  Ry
redata: Net charge of the system         =     0.0000 |e|
redata: Max. number of SCF Iter          =      500
redata: SCF convergence failure will abort job
redata: Performing Pulay mixing using    =    10 iterations
redata: Mix DM in first SCF step ?       =     F
redata: Write Pulay info on disk?        =     F
redata: Discard 1st Pulay DM after  kick =     F
redata: New DM Mixing Weight             =     0.0500
redata: New DM Occupancy tolerance       = 0.000000000001
redata: No kicks to SCF
redata: DM Mixing Weight for Kicks       =     0.5000
redata: DM Tolerance for SCF             =     0.000100
redata: Require Energy convergence for SCF =     F
redata: DM Energy tolerance for SCF      =     0.000100 eV
redata: Require Harris convergence for SCF =     F
redata: DM Harris energy tolerance for SCF =     0.000100 eV
redata: Using Saved Data (generic)   =     F
redata: Use continuation files for DM    =     T
redata: Neglect nonoverlap interactions  =     F
redata: Method of Calculation            =     Diagonalization
redata: Divide and Conquer               =     T
redata: Electronic Temperature           =     0.0019  Ry
redata: Fix the spin of the system       =     F
redata: Dynamics option                  =     Verlet MD run
redata: Initial MD time step             =        1
redata:   Final MD time step             =        1
redata: Length of MD time step           =     1.0000  fs
redata: Initial Temperature of MD run    =     0.0000  K
redata: Perform a MD quench              =     F
redata: ***********************************************************************
Total number of electrons:   276.000000
Total ionic charge:   276.000000

* ProcessorY, Blocksize:    3  24

k-point displ. along   1 input, could be:     0.50    0.00
k-point displ. along   2 input, could be:     0.50    0.00
 Kpoints in:          231 . Kpoints trimmed:          231

siesta: k-grid: Number of k-points =   231
siesta: k-grid: Cutoff (effective) =     5.000 Ang
siesta: k-grid: Supercell and displacements
siesta: k-grid:   21   0   0      0.500
siesta: k-grid:    0  21   0      0.500
siesta: k-grid:    0   0   1      0.000
Naive supercell factors:     2    2    2

superc: Internal auxiliary supercell:     2 x     2 x     2  =       8
superc: Number of atoms, orbitals, and projectors:    576   7488   9216

* Maximum dynamic memory allocated =     4 MB

siesta:                 ==============================
                            Begin MD step =      1
                        ==============================

superc: Internal auxiliary supercell:     2 x     2 x     2  =       8
superc: Number of atoms, orbitals, and projectors:    576   7488   9216

outcell: Unit cell vectors (Ang):
       12.804619    7.392750    0.000000
        0.000000   14.785500    0.000000
        0.000000    0.000000   10.000000

outcell: Cell vector modules (Ang)   :   14.785500   14.785500   10.000000
outcell: Cell angles (23,13,12) (deg):     90.0000     90.0000     60.0000
outcell: Cell volume (Ang**3)        :   1893.2269
New_DM. Step:     1
Initializing Density Matrix...

InitMesh: MESH =   120 x   120 x    90 =     1296000
InitMesh: Mesh cutoff (required, used) =   200.000   223.865 Ry

* Maximum dynamic memory allocated =   155 MB

stepf: Fermi-Dirac step function

siesta: Program's energy decomposition (eV):
siesta: Ebs     =     -5714.282641
siesta: Eions   =     16866.330537
siesta: Ena     =      4451.332056
siesta: Ekin    =      5745.320513
siesta: Enl     =       737.089811
siesta: DEna    =        -0.000011
siesta: DUscf   =         0.000000
siesta: DUext   =         0.000000
siesta: Exc     =     -4189.156246
siesta: eta*DQ  =         0.000000
siesta: Emadel  =         0.000000
siesta: Emeta   =         0.000000
siesta: Emolmec =         0.000000
siesta: Ekinion =         0.000000
siesta: Eharris =     -9843.228644
siesta: Etot    =    -10121.744413
siesta: FreeEng =    -10121.744413

siesta: iscf   Eharris(eV)      E_KS(eV)   FreeEng(eV)   dDmax  Ef(eV)
siesta:    1    -9843.2286   -10121.7444   -10121.7444  7.5783 -8.1087
timer: Routine,Calls,Time,% = IterSCF        1    3050.433  99.59
elaps: Routine,Calls,Wall,% = IterSCF        1     254.806  99.58
siesta:    2   -13333.3177    -9220.0856    -9220.1270 15.9105 -2.5191
siesta:    3    -9790.5233    -9938.9545    -9939.0071  2.5655 -5.8864
siesta:    4    -9749.8023    -9843.0491    -9843.0699  1.3703 -5.5885
siesta:    5    -9714.7225    -9763.8679    -9763.9309  1.1973 -4.8231
siesta:    6    -9701.6617    -9744.2237    -9744.2369  0.7282 -4.8776
siesta:    7    -9698.2143    -9736.2032    -9736.2335  0.7113 -4.9078
siesta:    8    -9689.8038    -9720.0392    -9720.1029  0.6337 -4.8633
siesta:    9    -9687.7510    -9710.0152    -9710.0710  0.4921 -4.8761
siesta:   10    -9688.0147    -9701.4266    -9701.4917  0.9629 -4.8039
siesta:   11    -9689.6689    -9686.2975    -9686.3740  0.4399 -4.7380
siesta:   12    -9687.1880    -9683.7748    -9683.8285  0.3308 -4.7019
siesta:   13    -9686.7018    -9678.4761    -9678.5268  0.2290 -4.7521
siesta:   14    -9686.5435    -9674.3054    -9674.3717  0.1981 -4.7129
siesta:   15    -9686.2672    -9675.5014    -9675.5641  0.1622 -4.7307
siesta:   16    -9686.0165    -9677.1492    -9677.2179  0.1320 -4.7377
siesta:   17    -9685.8193    -9681.5898    -9681.6607  0.0808 -4.7746
siesta:   18    -9685.7098    -9682.4267    -9682.4910  0.0920 -4.8240
siesta:   19    -9685.6508    -9683.4063    -9683.4767  0.0681 -4.8236
siesta:   20    -9685.6339    -9684.3249    -9684.3993  0.0834 -4.8223
siesta:   21    -9685.6007    -9684.1997    -9684.2739  0.0642 -4.8094
siesta:   22    -9685.5876    -9683.1768    -9683.2503  0.0420 -4.8021
siesta:   23    -9685.5789    -9683.0393    -9683.1121  0.0294 -4.8042
siesta:   24    -9685.5778    -9683.7206    -9683.7967  0.0229 -4.7980
siesta:   25    -9685.5759    -9684.2632    -9684.3365  0.0307 -4.8011
siesta:   26    -9685.5784    -9684.9495    -9685.0238  0.0201 -4.8050
siesta:   27    -9685.5765    -9685.4595    -9685.5336  0.0101 -4.8077
siesta:   28    -9685.5739    -9685.6227    -9685.6971  0.0060 -4.8067
siesta:   29    -9685.5734    -9685.6705    -9685.7450  0.0041 -4.8066
siesta:   30    -9685.5734    -9685.6943    -9685.7690  0.0038 -4.8059
siesta:   31    -9685.5734    -9685.6908    -9685.7654  0.0030 -4.8058
siesta:   32    -9685.5733    -9685.6440    -9685.7186  0.0021 -4.8052
siesta:   33    -9685.5734    -9685.6308    -9685.7055  0.0011 -4.8050
siesta:   34    -9685.5734    -9685.6207    -9685.6952  0.0011 -4.8048
siesta:   35    -9685.5733    -9685.5978    -9685.6724  0.0011 -4.8047
siesta:   36    -9685.5733    -9685.5849    -9685.6595  0.0008 -4.8047
siesta:   37    -9685.5733    -9685.5786    -9685.6531  0.0005 -4.8047
siesta:   38    -9685.5733    -9685.5761    -9685.6507  0.0005 -4.8048
siesta:   39    -9685.5733    -9685.5778    -9685.6524  0.0003 -4.8049
siesta:   40    -9685.5733    -9685.5808    -9685.6554  0.0001 -4.8049
siesta:   41    -9685.5733    -9685.5777    -9685.6523  0.0001 -4.8049

siesta: E_KS(eV) =            -9685.5761

siesta: E_KS - E_eggbox =     -9685.5761

siesta: Atomic forces (eV/Ang):
----------------------------------------
   Tot   -0.244857   -0.260484    0.000000
----------------------------------------
   Max  571.176660
   Res  161.227749    sqrt( Sum f_i^2 / 3N )
----------------------------------------
   Max  571.176660    constrained

Stress-tensor-Voigt (kbar):     -765.74    -2870.22       -0.44       -9.02        0.00        0.00
(Free)E + p*V (eV/cell)    -8253.3368
Target enthalpy (eV/cell)    -9685.6507

siesta: Stress tensor (static) (eV/Ang**3):
        -0.477933   -0.005632    0.000000
        -0.005631   -1.791429    0.000000
         0.000000    0.000000   -0.000277

siesta: Pressure (static):       1212.13395700  kBar

siesta: Stress tensor (total) (eV/Ang**3):
        -0.477933   -0.005632    0.000000
        -0.005631   -1.791429    0.000000
         0.000000    0.000000   -0.000277

siesta: Pressure (total):       1212.13395700  kBar

siesta: Temp_ion =       0.000 K

* Maximum dynamic memory allocated =   168 MB
Computing bands...

siesta: Program's energy decomposition (eV):
siesta: Ebs     =     -4342.966009
siesta: Eions   =     16866.330537
siesta: Ena     =      4451.332056
siesta: Ekin    =      8708.741010
siesta: Enl     =      -907.191324
siesta: DEna    =      -816.362047
siesta: DUscf   =       110.914834
siesta: DUext   =         0.000000
siesta: Exc     =     -4366.680087
siesta: eta*DQ  =         0.000000
siesta: Emadel  =         0.000000
siesta: Emeta   =         0.000000
siesta: Emolmec =         0.000000
siesta: Ekinion =         0.000000
siesta: Eharris =     -9685.573313
siesta: Etot    =     -9685.576094
siesta: FreeEng =     -9685.650666

siesta: Final energy (eV):
siesta:  Band Struct. =   -4342.966009
siesta:       Kinetic =    8708.741010
siesta:       Hartree =   28643.159965
siesta:    Ext. field =       0.000000
siesta:   Exch.-corr. =   -4366.680087
siesta:  Ion-electron =  -65688.847640
siesta:       Ion-ion =   23018.050658
siesta:       Ekinion =       0.000000
siesta:         Total =   -9685.576094

siesta: Atomic forces (eV/Ang):
siesta:      1   -0.026205  111.487980    0.000000
siesta:      2  -22.040106    3.565188    0.000000
siesta:      3    0.324393   -1.036501    0.000000
siesta:      4    2.965402   -1.850833    0.000000
siesta:      5   -3.637710    1.059139    0.000000
siesta:      6    4.085167   -1.235981    0.000000
siesta:      7   -2.967714    1.915392    0.000000
siesta:      8   -5.282621   -4.440545    0.000000
siesta:      9   -4.944554    2.827505    0.000000
siesta:     10   -3.554518    1.589178    0.000000
siesta:     11    0.852048    4.782603    0.000000
siesta:     12    0.797443  113.655122    0.000000
siesta:     13    0.139029  549.407795    0.000000
siesta:     14    1.276379 -128.841502    0.000000
siesta:     15   -8.459577 -541.945389    0.000000
siesta:     16   -1.971701  127.577683    0.000000
siesta:     17    9.489028 -541.850286    0.000000
siesta:     18   26.584709    5.657669    0.000000
siesta:     19   34.540604 -548.763032    0.000000
siesta:     20    1.934265    0.108015    0.000000
siesta:     21   -2.168665    1.926615    0.000000
siesta:     22    2.769827    1.632221    0.000000
siesta:     23   -1.116403    0.818445    0.000000
siesta:     24  -25.907240 -539.312859    0.000000
siesta:     25   13.655811  547.670601    0.000000
siesta:     26   -1.615463 -126.805604    0.000000
siesta:     27   31.857440  548.324073    0.000000
siesta:     28   26.267370   -4.162850    0.000000
siesta:     29   -2.121816   -1.694500    0.000000
siesta:     30   -0.615015   -3.530848    0.000000
siesta:     31    3.005314    1.918475    0.000000
siesta:     32    0.263447    6.140175    0.000000
siesta:     33   -0.209124   -5.923676    0.000000
siesta:     34  -14.490531  547.414827    0.000000
siesta:     35   -6.513541 -133.997875    0.000000
siesta:     36   10.859041  553.848136    0.000000
siesta:     37   -6.964327 -133.732974    0.000000
siesta:     38   34.125470  556.701890    0.000000
siesta:     39   19.034511   -7.128366    0.000000
siesta:     40   -0.660925   -2.025653    0.000000
siesta:     41    2.775359    2.105317    0.000000
siesta:     42    0.299549   -0.896025    0.000000
siesta:     43  -36.395149  549.973982    0.000000
siesta:     44  -23.918468   -5.184718    0.000000
siesta:     45  -31.618481  560.956530    0.000000
siesta:     46  -18.831097   -7.552474    0.000000
siesta:     47   -0.481869  571.176660    0.000000
siesta:     48   -3.524147   -0.596244    0.000000
siesta:     49   -0.997790    4.433083    0.000000
siesta:     50    1.933262   -1.614093    0.000000
siesta:     51   -1.559742   -1.108664    0.000000
siesta:     52    0.090767    2.547846    0.000000
siesta:     53    0.013214   -1.139792    0.000000
siesta:     54    1.299777   -4.439037    0.000000
siesta:     55    0.554976    1.122497    0.000000
siesta:     56    0.735118   -4.151271    0.000000
siesta:     57    0.117564    1.169694    0.000000
siesta:     58    1.026061   -4.043226    0.000000
siesta:     59   -1.956358   -0.869961    0.000000
siesta:     60    0.031524    0.806209    0.000000
siesta:     61   -1.144280   -2.414869    0.000000
siesta:     62    3.244353    0.609434    0.000000
siesta:     63    0.597487 -563.697566    0.000000
siesta:     64    3.955864    0.844462    0.000000
siesta:     65   22.371307    5.223557    0.000000
siesta:     66   23.517612 -557.473683    0.000000
siesta:     67  -22.023466    5.549503    0.000000
siesta:     68  -27.471026 -552.699907    0.000000
siesta:     69    0.601371    2.624007    0.000000
siesta:     70    1.309833  130.897895    0.000000
siesta:     71   -5.068549 -541.952103    0.000000
siesta:     72    0.711621 -552.216979    0.000000
siesta: ----------------------------------------
siesta:    Tot   -0.244857   -0.260484    0.000000

siesta: Stress tensor (static) (eV/Ang**3):
siesta:    -0.477933   -0.005632    0.000000
siesta:    -0.005631   -1.791429    0.000000
siesta:     0.000000    0.000000   -0.000277

siesta: Cell volume =       1893.226884 Ang**3

siesta: Pressure (static):
siesta:                Solid            Molecule  Units
siesta:           0.00823976          0.12581112  Ry/Bohr**3
siesta:           0.75654633         11.55154895  eV/Ang**3
siesta:        1212.13395700      18507.82185962  kBar
(Free)E+ p_basis*V_orbitals  =       -9651.121607
(Free)Eharris+ p_basis*V_orbitals  =       -9651.117183

siesta: Electric dipole (a.u.)  =    0.000000    0.000000    0.000000
siesta: Electric dipole (Debye) =    0.000000    0.000000    0.000000

* Maximum dynamic memory allocated : Node    0 =   168 MB
* Maximum dynamic memory allocated : Node    1 =    67 MB
* Maximum dynamic memory allocated : Node    2 =    69 MB
* Maximum dynamic memory allocated : Node    3 =   154 MB
* Maximum dynamic memory allocated : Node    4 =   163 MB
* Maximum dynamic memory allocated : Node    5 =    60 MB
* Maximum dynamic memory allocated : Node    6 =    62 MB
* Maximum dynamic memory allocated : Node    7 =   154 MB
* Maximum dynamic memory allocated : Node    8 =   147 MB
* Maximum dynamic memory allocated : Node    9 =    59 MB
* Maximum dynamic memory allocated : Node   10 =    60 MB
* Maximum dynamic memory allocated : Node   11 =   139 MB

* Maximum memory occured during matrixMtoO                    

timer: CPU execution times:
timer:  Routine       Calls   Time/call    Tot.time        %
timer:  siesta            1  121642.844  121642.844   100.00
timer:  Setup             1       3.327       3.327     0.00
timer:  bands             3     225.603     676.809     0.56
timer:  writewave         1       0.023       0.023     0.00
timer:  KSV_init          1       0.004       0.004     0.00
timer:  IterMD            1  120955.813  120955.813    99.44
timer:  hsparse           1       0.282       0.282     0.00
timer:  overlap           1       6.751       6.751     0.01
timer:  IterSCF          41    2946.486  120805.942    99.31
timer:  kinefsm           2       3.438       6.875     0.01
timer:  nlefsm            2      20.112      40.224     0.03
timer:  DHSCF            42      76.200    3200.384     2.63
timer:  DHSCF1            1       1.190       1.190     0.00
timer:  DHSCF2            1      32.549      32.549     0.03
timer:  REORD           338       0.002       0.739     0.00
timer:  POISON           43       0.448      19.247     0.02
timer:  DHSCF3           42      74.752    3139.574     2.58
timer:  rhoofd           42      16.211     680.867     0.56
timer:  cellXC           42       2.431     102.118     0.08
timer:  vmat             42      35.759    1501.863     1.23
timer:  MolMec            2       0.000       0.000     0.00
timer:  diagon           41    2869.168  117635.874    96.71
timer:  c-eigval       9592       5.582   53540.696    44.01
timer:  c-buildHS      9592       0.036     346.558     0.28
timer:  cdiag         19063       5.680  108275.511    89.01
timer:  cdiag1        19063       0.260    4951.680     4.07
timer:  cdiag2        19063       1.837   35016.083    28.79
timer:  cdiag3        19063       3.371   64263.004    52.83
timer:  cdiag4        19063       0.088    1672.344     1.37
timer:  c-eigvec       9471       5.846   55371.631    45.52
timer:  c-buildD       9471       0.987    9348.302     7.69
timer:  DHSCF4            1      26.787      26.787     0.02
timer:  dfscf             1      24.702      24.702     0.02
timer:  overfsm           1       0.322       0.322     0.00
timer:  optical           1       6.294       6.294     0.01
  

elaps: ELAPSED times:
elaps:  Routine       Calls   Time/call    Tot.time        %
elaps:  siesta            1   10160.727   10160.727   100.00
elaps:  Setup             1       0.279       0.279     0.00
elaps:  bands             3      18.860      56.579     0.56
elaps:  writewave         1       0.002       0.002     0.00
elaps:  KSV_init          1       0.000       0.000     0.00
elaps:  IterMD            1   10103.339   10103.339    99.44
elaps:  hsparse           1       0.028       0.028     0.00
elaps:  overlap           1       0.719       0.719     0.01
elaps:  IterSCF          41     246.118   10090.818    99.31
elaps:  kinefsm           2       0.369       0.738     0.01
elaps:  nlefsm            2       1.780       3.561     0.04
elaps:  DHSCF            42       6.419     269.581     2.65
elaps:  DHSCF1            1       0.102       0.102     0.00
elaps:  DHSCF2            1       2.717       2.717     0.03
elaps:  REORD           338       0.000       0.102     0.00
elaps:  POISON           43       0.038       1.632     0.02
elaps:  DHSCF3           42       6.245     262.291     2.58
elaps:  rhoofd           42       2.911     122.266     1.20
elaps:  cellXC           42       0.203       8.506     0.08
elaps:  vmat             42       2.988     125.486     1.24
elaps:  MolMec            2       0.000       0.000     0.00
elaps:  diagon           41     239.665    9826.278    96.71
elaps:  c-eigval       9592       0.466    4472.149    44.01
elaps:  c-buildHS      9592       0.004      37.263     0.37
elaps:  cdiag         19063       0.469    8948.743    88.07
elaps:  cdiag1        19063       0.021     404.098     3.98
elaps:  cdiag2        19063       0.154    2927.420    28.81
elaps:  cdiag3        19063       0.282    5375.360    52.90
elaps:  cdiag4        19063       0.007     134.464     1.32
elaps:  c-eigvec       9471       0.480    4545.146    44.73
elaps:  c-buildD       9471       0.091     860.720     8.47
elaps:  DHSCF4            1       4.427       4.427     0.04
elaps:  dfscf             1       4.168       4.168     0.04
elaps:  overfsm           1       0.035       0.035     0.00
elaps:  optical           1       0.000       0.000     0.00
  
>> End of run:   5-MAY-2016  13:54:39
