Siesta Version:                                        siesta-3.2-pl-3
Architecture  : x86_64-unknown-linux-gnu--unknown
Compiler flags: mpiifort -g -O2 -fPIC -xSSE4.1 -fp-model source -shared-intel 
PARALLEL version

* Running on   12 nodes in parallel
>> Start of run:   6-APR-2016  14:55:55

                           ***********************       
                           *  WELCOME TO SIESTA  *       
                           ***********************       

reinit: Reading from standard input
************************** Dump of input data file ****************************
#(1) General system descriptors
SystemName            GRP_doping    # Descriptive name of the system
SystemLabel           GRP_doping    # Short name for naming files
%include STRUCT.fdf
%include KPT.fdf
%include BASIS.fdf
#%include TS.fdf # for transiesta calculation
#(4) DFT, Grid, SCF
XC.functional         GGA           # LDA or GGA (default = LDA)
XC.authors            PBE           # CA (Ceperley-Aldr) = PZ
                                    #    (Perdew-Zunger) - LDA - Default
                                    # PW92 (Perdew-Wang-92) - LDA
                                    # PBE (Perdew-Burke-Ernzerhof) - GGA
MeshCutoff            200.000000    Ry      # Default: 50.0 Ry ~ 0.444 Bohr
                                    #         100.0 Ry ~ 0.314 Bohr
MaxSCFIterations      500           # Default: 50
DM.MixingWeight       0.05          # Default: 0.25
DM.NumberPulay        10            # Default: 0
DM.PulayOnFile        F             # SystemLabel.P1, SystemLabel.P2
DM.Tolerance          1.d-4         # Default: 1.d-4
DM.UseSaveDM          .true.        # because of the bug
SCFMustConverge       .true.
NeglNonOverlapInt     F             # Default: F
Diag.ParallelOverK    .true.
#(5) Eigenvalue problem: order-N or diagonalization
SolutionMethod        Diagon        # or Transiesta
ElectronicTemperature 300.0 K       # Default: 300.0 K
#(6) Molecular dynamics and relaxations
#MD.TypeOfRun          CG            # Type of dynamics:
#MD.VariableCell       F
#MD.NumCGsteps         0           # 0 for single-point / 100 for gopt
#MD.MaxCGDispl         0.2 Bohr      # Default: 0.2 Bohr
#MD.MaxForceTol        0.02 eV/Ang   # Default: 0.04 eV/Ang
#MD.MaxStressTol       1.0 GPa       # Default: 1.0 GPa
************************** End of input data file *****************************

reinit: -----------------------------------------------------------------------
reinit: System Name: GRP_doping
reinit: -----------------------------------------------------------------------
reinit: System Label: GRP_doping                                                  
reinit: -----------------------------------------------------------------------

initatom: Reading input for the pseudopotentials and atomic orbitals ----------
 Species number:            1  Label: N Atomic number:           7
 Species number:            2  Label: C Atomic number:           6
Ground state valence configuration:   2s02  2p03
Reading pseudopotential information in formatted form from N.psf

Valence configuration for pseudopotential generation:
2s( 2.00) rc: 1.48
2p( 3.00) rc: 1.48
3d( 0.00) rc: 1.48
4f( 0.00) rc: 1.48
Ground state valence configuration:   2s02  2p02
Reading pseudopotential information in formatted form from C.psf

Valence configuration for pseudopotential generation:
2s( 2.00) rc: 1.54
2p( 2.00) rc: 1.54
3d( 0.00) rc: 1.54
4f( 0.00) rc: 1.54
For N, standard SIESTA heuristics set lmxkb to 3
 (one more than the basis l, including polarization orbitals).
Use PS.lmax or PS.KBprojectors blocks to override.
For C, standard SIESTA heuristics set lmxkb to 3
 (one more than the basis l, including polarization orbitals).
Use PS.lmax or PS.KBprojectors blocks to override.

<basis_specs>
===============================================================================
N                    Z=   7    Mass=  14.010        Charge= 0.17977+309
Lmxo=1 Lmxkb= 3    BasisType=split      Semic=F
L=0  Nsemic=0  Cnfigmx=2
          n=1  nzeta=2  polorb=0
            splnorm:   0.15000    
               vcte:    0.0000    
               rinn:    0.0000    
                rcs:    0.0000      0.0000    
            lambdas:    1.0000      1.0000    
L=1  Nsemic=0  Cnfigmx=2
          n=1  nzeta=2  polorb=1
            splnorm:   0.15000    
               vcte:    0.0000    
               rinn:    0.0000    
                rcs:    0.0000      0.0000    
            lambdas:    1.0000      1.0000    
-------------------------------------------------------------------------------
L=0  Nkbl=1  erefs: 0.17977+309
L=1  Nkbl=1  erefs: 0.17977+309
L=2  Nkbl=1  erefs: 0.17977+309
L=3  Nkbl=1  erefs: 0.17977+309
===============================================================================
</basis_specs>

atom: Called for N                     (Z =   7)

read_vps: Pseudopotential generation method:
read_vps: ATM3      Troullier-Martins                       
Total valence charge:    5.00000

read_vps: Pseudopotential includes a core correction:
read_vps: Pseudo-core for xc-correction

xc_check: Exchange-correlation functional:
xc_check: GGA Perdew, Burke & Ernzerhof 1996
V l=0 = -2*Zval/r beyond r=  1.4606
V l=1 = -2*Zval/r beyond r=  1.4606
V l=2 = -2*Zval/r beyond r=  1.4606
V l=3 = -2*Zval/r beyond r=  1.4606
All V_l potentials equal beyond r=  1.4606
This should be close to max(r_c) in ps generation
All pots = -2*Zval/r beyond r=  1.4606

VLOCAL1: 99.0% of the norm of Vloc inside     20.347 Ry
VLOCAL1: 99.9% of the norm of Vloc inside     46.372 Ry
atom: Maximum radius for 4*pi*r*r*local-pseudopot. charge    1.76189
atom: Maximum radius for r*vlocal+2*Zval:    1.53550
GHOST: No ghost state for L =  0
GHOST: No ghost state for L =  1
GHOST: No ghost state for L =  2
GHOST: No ghost state for L =  3

KBgen: Kleinman-Bylander projectors: 
   l= 0   rc=  1.634559   el= -1.363963   Ekb=  5.296955   kbcos=  0.335621
   l= 1   rc=  1.614250   el= -0.521451   Ekb= -5.259161   kbcos= -0.433408
   l= 2   rc=  1.718383   el=  0.001991   Ekb= -1.271464   kbcos= -0.007566
   l= 3   rc=  1.761893   el=  0.003093   Ekb= -0.494769   kbcos= -0.001015

KBgen: Total number of  Kleinman-Bylander projectors:   16
atom: -------------------------------------------------------------------------

atom: SANKEY-TYPE ORBITALS:
atom: Selected multiple-zeta basis: split     

SPLIT: Orbitals with angular momentum L= 0

SPLIT: Basis orbitals for state 2s

SPLIT: PAO cut-off radius determined from an
SPLIT: energy shift=  0.007350 Ry

   izeta = 1
                 lambda =    1.000000
                     rc =    4.071465
                 energy =   -1.356470
                kinetic =    1.176977
    potential(screened) =   -2.533447
       potential(ionic) =   -8.057990

   izeta = 2
                 rmatch =    2.905100
              splitnorm =    0.150000
                 energy =   -1.158343
                kinetic =    1.813009
    potential(screened) =   -2.971352
       potential(ionic) =   -8.901931

SPLIT: Orbitals with angular momentum L= 1

SPLIT: Basis orbitals for state 2p

SPLIT: PAO cut-off radius determined from an
SPLIT: energy shift=  0.007350 Ry

   izeta = 1
                 lambda =    1.000000
                     rc =    4.972977
                 energy =   -0.513884
                kinetic =    3.441732
    potential(screened) =   -3.955616
       potential(ionic) =   -9.287901

   izeta = 2
                 rmatch =    3.054066
              splitnorm =    0.150000
                 energy =   -0.318226
                kinetic =    5.125348
    potential(screened) =   -5.443573
       potential(ionic) =  -11.380999

POLgen: Perturbative polarization orbital with L=  2

POLgen: Polarization orbital for state 2p

   izeta = 1
                     rc =    4.972977
                 energy =    1.607437
                kinetic =    3.268125
    potential(screened) =   -1.660688
       potential(ionic) =   -5.973652
atom: Total number of Sankey-type orbitals: 13

atm_pop: Valence configuration (for local Pseudopot. screening):
 2s( 2.00)                                                            
 2p( 3.00)                                                            
Vna: chval, zval:    5.00000   5.00000

Vna:  Cut-off radius for the neutral-atom potential:   4.972977
comcore: Pseudo-core radius Rcore=  1.554824

atom: _________________________________________________________________________

<basis_specs>
===============================================================================
C                    Z=   6    Mass=  12.010        Charge= 0.17977+309
Lmxo=1 Lmxkb= 3    BasisType=split      Semic=F
L=0  Nsemic=0  Cnfigmx=2
          n=1  nzeta=2  polorb=0
            splnorm:   0.15000    
               vcte:    0.0000    
               rinn:    0.0000    
                rcs:    0.0000      0.0000    
            lambdas:    1.0000      1.0000    
L=1  Nsemic=0  Cnfigmx=2
          n=1  nzeta=2  polorb=1
            splnorm:   0.15000    
               vcte:    0.0000    
               rinn:    0.0000    
                rcs:    0.0000      0.0000    
            lambdas:    1.0000      1.0000    
-------------------------------------------------------------------------------
L=0  Nkbl=1  erefs: 0.17977+309
L=1  Nkbl=1  erefs: 0.17977+309
L=2  Nkbl=1  erefs: 0.17977+309
L=3  Nkbl=1  erefs: 0.17977+309
===============================================================================
</basis_specs>

atom: Called for C                     (Z =   6)

read_vps: Pseudopotential generation method:
read_vps: ATM3      Troullier-Martins                       
Total valence charge:    4.00000

read_vps: Pseudopotential includes a core correction:
read_vps: Pseudo-core for xc-correction

xc_check: Exchange-correlation functional:
xc_check: GGA Perdew, Burke & Ernzerhof 1996
V l=0 = -2*Zval/r beyond r=  1.5227
V l=1 = -2*Zval/r beyond r=  1.5227
V l=2 = -2*Zval/r beyond r=  1.5227
V l=3 = -2*Zval/r beyond r=  1.5038
All V_l potentials equal beyond r=  1.5227
This should be close to max(r_c) in ps generation
All pots = -2*Zval/r beyond r=  1.5227

VLOCAL1: 99.0% of the norm of Vloc inside     18.722 Ry
VLOCAL1: 99.9% of the norm of Vloc inside     42.668 Ry
atom: Maximum radius for 4*pi*r*r*local-pseudopot. charge    1.83678
atom: Maximum radius for r*vlocal+2*Zval:    1.58088
GHOST: No ghost state for L =  0
GHOST: No ghost state for L =  1
GHOST: No ghost state for L =  2
GHOST: No ghost state for L =  3

KBgen: Kleinman-Bylander projectors: 
   l= 0   rc=  1.704034   el= -1.009801   Ekb=  5.335044   kbcos=  0.316824
   l= 1   rc=  1.704034   el= -0.388707   Ekb= -3.785862   kbcos= -0.366464
   l= 2   rc=  1.791422   el=  0.001971   Ekb= -0.970471   kbcos= -0.009212
   l= 3   rc=  1.859892   el=  0.003065   Ekb= -0.399525   kbcos= -0.001223

KBgen: Total number of  Kleinman-Bylander projectors:   16
atom: -------------------------------------------------------------------------

atom: SANKEY-TYPE ORBITALS:
atom: Selected multiple-zeta basis: split     

SPLIT: Orbitals with angular momentum L= 0

SPLIT: Basis orbitals for state 2s

SPLIT: PAO cut-off radius determined from an
SPLIT: energy shift=  0.007350 Ry

   izeta = 1
                 lambda =    1.000000
                     rc =    4.632753
                 energy =   -1.002270
                kinetic =    0.855760
    potential(screened) =   -1.858031
       potential(ionic) =   -5.417575

   izeta = 2
                 rmatch =    3.431921
              splitnorm =    0.150000
                 energy =   -0.867111
                kinetic =    1.300804
    potential(screened) =   -2.167915
       potential(ionic) =   -5.962684

SPLIT: Orbitals with angular momentum L= 1

SPLIT: Basis orbitals for state 2p

SPLIT: PAO cut-off radius determined from an
SPLIT: energy shift=  0.007350 Ry

   izeta = 1
                 lambda =    1.000000
                     rc =    5.658549
                 energy =   -0.381140
                kinetic =    2.399701
    potential(screened) =   -2.780841
       potential(ionic) =   -6.206085

   izeta = 2
                 rmatch =    3.653288
              splitnorm =    0.150000
                 energy =   -0.249149
                kinetic =    3.542762
    potential(screened) =   -3.791911
       potential(ionic) =   -7.581078

POLgen: Perturbative polarization orbital with L=  2

POLgen: Polarization orbital for state 2p

   izeta = 1
                     rc =    5.658549
                 energy =    1.109913
                kinetic =    2.304789
    potential(screened) =   -1.194876
       potential(ionic) =   -4.013592
atom: Total number of Sankey-type orbitals: 13

atm_pop: Valence configuration (for local Pseudopot. screening):
 2s( 2.00)                                                            
 2p( 2.00)                                                            
Vna: chval, zval:    4.00000   4.00000

Vna:  Cut-off radius for the neutral-atom potential:   5.658549
comcore: Pseudo-core radius Rcore=  1.791422

atom: _________________________________________________________________________

prinput: Basis input ----------------------------------------------------------

PAO.BasisType split     

%block ChemicalSpeciesLabel
    1    7 N                       # Species index, atomic number, species label
    2    6 C                       # Species index, atomic number, species label
%endblock ChemicalSpeciesLabel

%block PAO.Basis                 # Define Basis set
N                     2                    # Species label, number of l-shells
 n=2   0   2                         # n, l, Nzeta 
   4.071      2.905   
   1.000      1.000   
 n=2   1   2 P   1                   # n, l, Nzeta, Polarization, NzetaPol
   4.973      3.054   
   1.000      1.000   
C                     2                    # Species label, number of l-shells
 n=2   0   2                         # n, l, Nzeta 
   4.633      3.432   
   1.000      1.000   
 n=2   1   2 P   1                   # n, l, Nzeta, Polarization, NzetaPol
   5.659      3.653   
   1.000      1.000   
%endblock PAO.Basis

prinput: ----------------------------------------------------------------------

coor:   Atomic-coordinates input format  =     Cartesian coordinates
coor:                                          (in Angstroms)

siesta: Atomic coordinates (Bohr) and species
siesta:      2.23554   1.32097   0.00000  1        1
siesta:      4.56367   2.66461   0.00000  1        2
siesta:     32.50291  13.41944   0.00000  1        3
siesta:     27.84639   5.35379   0.00000  1        4
siesta:     27.84714  21.48508   0.00000  1        5
siesta:     11.54782   1.32097   0.00000  1        6
siesta:     13.87595   2.66461   0.00000  1        7
siesta:     20.86199   1.32097   0.00000  1        8
siesta:     23.19013   2.66461   0.00000  1        9
siesta:      9.21994   5.35379   0.00000  1       10
siesta:     18.53411   5.35379   0.00000  1       11
siesta:      6.89205   9.38661   0.00000  1       12
siesta:      9.22019  10.73026   0.00000  1       13
siesta:     16.20434   9.38661   0.00000  1       14
siesta:     18.53247  10.73026   0.00000  1       15
siesta:     13.87645  13.41944   0.00000  1       16
siesta:     11.54857  17.45226   0.00000  1       17
siesta:     13.87670  18.79590   0.00000  1       18
siesta:     18.53486  21.48508   0.00000  1       19
siesta:     25.51851   9.38661   0.00000  1       20
siesta:     27.84664  10.73026   0.00000  1       21
siesta:     23.19063  13.41944   0.00000  1       22
siesta:     20.86274  17.45226   0.00000  1       23
siesta:     23.19088  18.79590   0.00000  1       24
siesta:     30.17503  17.45226   0.00000  1       25
siesta:     32.50316  18.79590   0.00000  1       26
siesta:     37.16131  21.48508   0.00000  1       27
siesta:     32.50328  21.48508   0.00000  2       28
siesta:     34.83141  22.82873   0.00000  2       29
siesta:     34.83116  17.45226   0.00000  2       30
siesta:     37.15930  18.79590   0.00000  2       31
siesta:     34.83104  14.76308   0.00000  2       32
siesta:     30.17465   9.38661   0.00000  2       33
siesta:     32.50278  10.73026   0.00000  2       34
siesta:     30.17453   6.69743   0.00000  2       35
siesta:     30.17527  22.82873   0.00000  2       36
siesta:      6.89168   1.32097   0.00000  2       37
siesta:      9.21981   2.66461   0.00000  2       38
siesta:     16.20396   1.32097   0.00000  2       39
siesta:     18.53210   2.66461   0.00000  2       40
siesta:     25.51813   1.32097   0.00000  2       41
siesta:     27.84627   2.66461   0.00000  2       42
siesta:      4.56380   5.35379   0.00000  2       43
siesta:      6.89193   6.69743   0.00000  2       44
siesta:     11.54807   6.69743   0.00000  2       45
siesta:     13.87608   5.35379   0.00000  2       46
siesta:     16.20421   6.69743   0.00000  2       47
siesta:     20.86224   6.69743   0.00000  2       48
siesta:     23.19025   5.35379   0.00000  2       49
siesta:     25.51838   6.69743   0.00000  2       50
siesta:     11.54820   9.38661   0.00000  2       51
siesta:     13.87633  10.73026   0.00000  2       52
siesta:     20.86237   9.38661   0.00000  2       53
siesta:     23.19050  10.73026   0.00000  2       54
siesta:      9.22031  13.41944   0.00000  2       55
siesta:     11.54845  14.76308   0.00000  2       56
siesta:     16.20459  14.76308   0.00000  2       57
siesta:     18.53448  13.41944   0.00000  2       58
siesta:     20.86262  14.76308   0.00000  2       59
siesta:     16.20471  17.45226   0.00000  2       60
siesta:     18.53284  18.79590   0.00000  2       61
siesta:     13.87683  21.48508   0.00000  2       62
siesta:     16.20496  22.82873   0.00000  2       63
siesta:     20.86299  22.82873   0.00000  2       64
siesta:     25.51876  14.76308   0.00000  2       65
siesta:     27.84677  13.41944   0.00000  2       66
siesta:     30.17490  14.76308   0.00000  2       67
siesta:     25.51888  17.45226   0.00000  2       68
siesta:     27.84702  18.79590   0.00000  2       69
siesta:     23.19100  21.48508   0.00000  2       70
siesta:     25.51913  22.82873   0.00000  2       71
siesta:     39.48945  22.82873   0.00000  2       72

siesta: System type = slab      

initatomlists: Number of atoms, orbitals, and projectors:     72   936  1152

siesta: ******************** Simulation parameters ****************************
siesta:
siesta: The following are some of the parameters of the simulation.
siesta: A complete list of the parameters used, including default values,
siesta: can be found in file out.fdf
siesta:
redata: Non-Collinear-spin run           =     F
redata: SpinPolarized (Up/Down) run      =     F
redata: Number of spin components        =     1
redata: Long output                      =     F
redata: Number of Atomic Species         =        2
redata: Charge density info will appear in .RHO file
redata: Write Mulliken Pop.              =     NO
redata: Mesh Cutoff                      =   200.0000  Ry
redata: Net charge of the system         =     0.0000 |e|
redata: Max. number of SCF Iter          =      500
redata: SCF convergence failure will abort job
redata: Performing Pulay mixing using    =    10 iterations
redata: Mix DM in first SCF step ?       =     F
redata: Write Pulay info on disk?        =     F
redata: Discard 1st Pulay DM after  kick =     F
redata: New DM Mixing Weight             =     0.0500
redata: New DM Occupancy tolerance       = 0.000000000001
redata: No kicks to SCF
redata: DM Mixing Weight for Kicks       =     0.5000
redata: DM Tolerance for SCF             =     0.000100
redata: Require Energy convergence for SCF =     F
redata: DM Energy tolerance for SCF      =     0.000100 eV
redata: Require Harris convergence for SCF =     F
redata: DM Harris energy tolerance for SCF =     0.000100 eV
redata: Using Saved Data (generic)   =     F
redata: Use continuation files for DM    =     T
redata: Neglect nonoverlap interactions  =     F
redata: Method of Calculation            =     Diagonalization
redata: Divide and Conquer               =     T
redata: Electronic Temperature           =     0.0019  Ry
redata: Fix the spin of the system       =     F
redata: Dynamics option                  =     Verlet MD run
redata: Initial MD time step             =        1
redata:   Final MD time step             =        1
redata: Length of MD time step           =     1.0000  fs
redata: Initial Temperature of MD run    =     0.0000  K
redata: Perform a MD quench              =     F
redata: ***********************************************************************
Total number of electrons:   315.000000
Total ionic charge:   315.000000

* ProcessorY, Blocksize:    3  24

k-point displ. along   1 input, could be:     0.50    0.00
k-point displ. along   2 input, could be:     0.50    0.00
 Kpoints in:          231 . Kpoints trimmed:          231

siesta: k-grid: Number of k-points =   231
siesta: k-grid: Cutoff (effective) =     5.000 Ang
siesta: k-grid: Supercell and displacements
siesta: k-grid:   21   0   0      0.500
siesta: k-grid:    0  21   0      0.500
siesta: k-grid:    0   0   1      0.000
Naive supercell factors:     2    2    2

superc: Internal auxiliary supercell:     2 x     2 x     2  =       8
superc: Number of atoms, orbitals, and projectors:    576   7488   9216

* Maximum dynamic memory allocated =     4 MB

siesta:                 ==============================
                            Begin MD step =      1
                        ==============================

superc: Internal auxiliary supercell:     2 x     2 x     2  =       8
superc: Number of atoms, orbitals, and projectors:    576   7488   9216

outcell: Unit cell vectors (Ang):
       14.785000    0.000000    0.000000
        7.393000   12.805052    0.000000
        0.000000    0.000000   10.000000

outcell: Cell vector modules (Ang)   :   14.785000   14.786000   10.000000
outcell: Cell angles (23,13,12) (deg):     90.0000     90.0000     60.0000
outcell: Cell volume (Ang**3)        :   1893.2269
New_DM. Step:     1
Initializing Density Matrix...

iodm: Reading Density Matrix from files

InitMesh: MESH =   120 x   120 x    90 =     1296000
InitMesh: Mesh cutoff (required, used) =   200.000   223.865 Ry

* Maximum dynamic memory allocated =   125 MB

stepf: Fermi-Dirac step function

siesta: Program's energy decomposition (eV):
siesta: Ebs     =     -4664.827018
siesta: Eions   =     22743.175864
siesta: Ena     =      4240.728185
siesta: Ekin    =     10095.239884
siesta: Enl     =     -1595.909430
siesta: DEna    =      -174.644045
siesta: DUscf   =        21.404301
siesta: DUext   =         0.000000
siesta: Exc     =     -4675.780307
siesta: eta*DQ  =         0.000000
siesta: Emadel  =         0.000000
siesta: Emeta   =         0.000000
siesta: Emolmec =         0.000000
siesta: Ekinion =         0.000000
siesta: Eharris =    -14832.146200
siesta: Etot    =    -14832.137276
siesta: FreeEng =    -14832.137276

siesta: iscf   Eharris(eV)      E_KS(eV)   FreeEng(eV)   dDmax  Ef(eV)
siesta:    1   -14832.1462   -14832.1373   -14832.1373  0.0000 -2.5598
timer: Routine,Calls,Time,% = IterSCF        1    1165.237  98.85
elaps: Routine,Calls,Wall,% = IterSCF        1     101.540  98.84

siesta: E_KS(eV) =           -14832.1462

siesta: E_KS - E_eggbox =    -14832.1462

siesta: Atomic forces (eV/Ang):
----------------------------------------
   Tot    0.508834   -0.119603    0.000000
----------------------------------------
   Max    1.054262
   Res    0.421176    sqrt( Sum f_i^2 / 3N )
----------------------------------------
   Max    1.054262    constrained

Stress-tensor-Voigt (kbar):       61.34       59.14        0.36        1.81        0.00        0.00
(Free)E + p*V (eV/cell)   -14879.7671
Target enthalpy (eV/cell)   -14832.1701

siesta: Stress tensor (static) (eV/Ang**3):
         0.038288    0.001128    0.000000
         0.001128    0.036911    0.000000
         0.000000    0.000000    0.000222

siesta: Pressure (static):        -40.28017498  kBar

siesta: Stress tensor (total) (eV/Ang**3):
         0.038288    0.001128    0.000000
         0.001128    0.036911    0.000000
         0.000000    0.000000    0.000222

siesta: Pressure (total):        -40.28017498  kBar

siesta: Temp_ion =       0.000 K

* Maximum dynamic memory allocated =   215 MB

siesta: Program's energy decomposition (eV):
siesta: Ebs     =     -4664.827018
siesta: Eions   =     22743.175864
siesta: Ena     =      4240.728185
siesta: Ekin    =     10095.262494
siesta: Enl     =     -1595.916531
siesta: DEna    =      -174.662550
siesta: DUscf   =        21.405731
siesta: DUext   =         0.000000
siesta: Exc     =     -4675.787663
siesta: eta*DQ  =         0.000000
siesta: Emadel  =         0.000000
siesta: Emeta   =         0.000000
siesta: Emolmec =         0.000000
siesta: Ekinion =         0.000000
siesta: Eharris =    -14832.146200
siesta: Etot    =    -14832.146198
siesta: FreeEng =    -14832.170149

siesta: Final energy (eV):
siesta:  Band Struct. =   -4664.827018
siesta:       Kinetic =   10095.262494
siesta:       Hartree =   28284.944042
siesta:    Ext. field =       0.000000
siesta:   Exch.-corr. =   -4675.787663
siesta:  Ion-electron =  -66046.945849
siesta:       Ion-ion =   17510.380779
siesta:       Ekinion =       0.000000
siesta:         Total =  -14832.146198

siesta: Atomic forces (eV/Ang):
siesta:      1    0.538160    0.282243    0.000000
siesta:      2    0.196849    0.143557    0.000000
siesta:      3    0.687478    0.356164    0.000000
siesta:      4    0.686895    0.356538    0.000000
siesta:      5    0.685678    0.361046    0.000000
siesta:      6    0.559291    0.276278    0.000000
siesta:      7    0.198338    0.147971    0.000000
siesta:      8    0.524039    0.281921    0.000000
siesta:      9    0.194990    0.143449    0.000000
siesta:     10    0.685594    0.355998    0.000000
siesta:     11    0.651006    0.364358    0.000000
siesta:     12    0.546033    0.296932    0.000000
siesta:     13    0.196779    0.149518    0.000000
siesta:     14    0.561633    0.298058    0.000000
siesta:     15    0.232048    0.139141    0.000000
siesta:     16    0.689641    0.355145    0.000000
siesta:     17    0.545166    0.295328    0.000000
siesta:     18    0.197712    0.149884    0.000000
siesta:     19    0.649745    0.365266    0.000000
siesta:     20    0.556453    0.294172    0.000000
siesta:     21    0.199266    0.149895    0.000000
siesta:     22    0.685197    0.355832    0.000000
siesta:     23    0.531105    0.297657    0.000000
siesta:     24    0.194966    0.150502    0.000000
siesta:     25    0.558267    0.296021    0.000000
siesta:     26    0.197844    0.148585    0.000000
siesta:     27    0.647112    0.365144    0.000000
siesta:     28    0.008637   -0.209831    0.000000
siesta:     29    0.407565   -0.840738    0.000000
siesta:     30   -0.169002    0.084753    0.000000
siesta:     31   -0.540511    0.759322    0.000000
siesta:     32   -1.018687   -0.593060    0.000000
siesta:     33   -0.169155    0.079046    0.000000
siesta:     34   -0.550970    0.757187    0.000000
siesta:     35   -1.018733   -0.590549    0.000000
siesta:     36   -1.034064   -0.565935    0.000000
siesta:     37   -0.166978    0.063939    0.000000
siesta:     38   -0.562580    0.756014    0.000000
siesta:     39   -0.161838    0.064800    0.000000
siesta:     40   -0.528614    0.752029    0.000000
siesta:     41   -0.166273    0.064661    0.000000
siesta:     42   -0.551193    0.754895    0.000000
siesta:     43   -0.008035   -0.211348    0.000000
siesta:     44    0.373120   -0.851897    0.000000
siesta:     45   -1.032884   -0.586388    0.000000
siesta:     46    0.009778   -0.219642    0.000000
siesta:     47    0.401770   -0.859387    0.000000
siesta:     48   -1.036162   -0.589336    0.000000
siesta:     49    0.004301   -0.218352    0.000000
siesta:     50    0.376227   -0.853801    0.000000
siesta:     51   -0.172623    0.081655    0.000000
siesta:     52   -0.561450    0.761378    0.000000
siesta:     53   -0.194640    0.087386    0.000000
siesta:     54   -0.565424    0.762352    0.000000
siesta:     55   -0.008605   -0.211069    0.000000
siesta:     56    0.374349   -0.852264    0.000000
siesta:     57   -1.001868   -0.591482    0.000000
siesta:     58   -0.033207   -0.204446    0.000000
siesta:     59    0.370058   -0.853883    0.000000
siesta:     60   -0.167062    0.081279    0.000000
siesta:     61   -0.528278    0.754838    0.000000
siesta:     62    0.023604   -0.218131    0.000000
siesta:     63    0.411319   -0.842806    0.000000
siesta:     64   -1.037835   -0.570060    0.000000
siesta:     65   -1.031946   -0.586628    0.000000
siesta:     66    0.003799   -0.217095    0.000000
siesta:     67    0.377944   -0.853672    0.000000
siesta:     68   -0.172640    0.081942    0.000000
siesta:     69   -0.561613    0.761418    0.000000
siesta:     70    0.002400   -0.213640    0.000000
siesta:     71    0.373810   -0.836666    0.000000
siesta:     72   -1.054262   -0.562992    0.000000
siesta: ----------------------------------------
siesta:    Tot    0.508834   -0.119603    0.000000

siesta: Stress tensor (static) (eV/Ang**3):
siesta:     0.038288    0.001128    0.000000
siesta:     0.001128    0.036911    0.000000
siesta:     0.000000    0.000000    0.000222

siesta: Cell volume =       1893.226895 Ang**3

siesta: Pressure (static):
siesta:                Solid            Molecule  Units
siesta:          -0.00027381         -0.00015395  Ry/Bohr**3
siesta:          -0.02514064         -0.01413511  eV/Ang**3
siesta:         -40.28017498        -22.64719324  kBar
(Free)E+ p_basis*V_orbitals  =      -14805.292549
(Free)Eharris+ p_basis*V_orbitals  =      -14805.301473

siesta: Electric dipole (a.u.)  =    0.000000    0.000000    0.000000
siesta: Electric dipole (Debye) =    0.000000    0.000000    0.000000

* Maximum dynamic memory allocated : Node    0 =   215 MB
* Maximum dynamic memory allocated : Node    1 =   137 MB
* Maximum dynamic memory allocated : Node    2 =   138 MB
* Maximum dynamic memory allocated : Node    3 =   206 MB
* Maximum dynamic memory allocated : Node    4 =   212 MB
* Maximum dynamic memory allocated : Node    5 =   133 MB
* Maximum dynamic memory allocated : Node    6 =   134 MB
* Maximum dynamic memory allocated : Node    7 =   206 MB
* Maximum dynamic memory allocated : Node    8 =   212 MB
* Maximum dynamic memory allocated : Node    9 =   133 MB
* Maximum dynamic memory allocated : Node   10 =   134 MB
* Maximum dynamic memory allocated : Node   11 =   206 MB

* Maximum memory occured during cdiag                         

timer: CPU execution times:
timer:  Routine       Calls   Time/call    Tot.time        %
timer:  siesta            1    1284.632    1284.632   100.00
timer:  Setup             1       3.241       3.241     0.25
timer:  bands             1       0.011       0.011     0.00
timer:  writewave         1       0.020       0.020     0.00
timer:  KSV_init          1       0.004       0.004     0.00
timer:  IterMD            1    1275.259    1275.259    99.27
timer:  hsparse           1       0.177       0.177     0.01
timer:  overlap           1       8.327       8.327     0.65
timer:  IterSCF           1    1165.237    1165.237    90.71
timer:  kinefsm           2       4.200       8.400     0.65
timer:  nlefsm            2      17.515      35.030     2.73
timer:  DHSCF             2      75.724     151.448    11.79
timer:  DHSCF1            1       0.904       0.904     0.07
timer:  DHSCF2            1      28.212      28.212     2.20
timer:  REORD            18       0.002       0.043     0.00
timer:  POISON            3       0.657       1.972     0.15
timer:  DHSCF3            2      52.033     104.066     8.10
timer:  rhoofd            2       9.655      19.309     1.50
timer:  cellXC            2       2.566       5.131     0.40
timer:  vmat              2      25.013      50.025     3.89
timer:  MolMec            2       0.000       0.000     0.00
timer:  diagon            1    1044.072    1044.072    81.27
timer:  cdiag            40      17.158     660.734    51.43
timer:  cdiag1           40       0.893      34.348     2.67
timer:  cdiag2           40       3.110     119.617     9.31
timer:  cdiag3           40      12.933     498.200    38.78
timer:  cdiag4           40       0.218       8.408     0.65
timer:  DHSCF4            1      18.225      18.225     1.42
timer:  dfscf             1      16.842      16.842     1.31
timer:  overfsm           1       0.260       0.260     0.02
timer:  optical           1       5.583       5.583     0.43
  

elaps: ELAPSED times:
elaps:  Routine       Calls   Time/call    Tot.time        %
elaps:  siesta            1     111.945     111.945   100.00
elaps:  Setup             1       0.283       0.283     0.25
elaps:  bands             1       0.001       0.001     0.00
elaps:  writewave         1       0.002       0.002     0.00
elaps:  KSV_init          1       0.000       0.000     0.00
elaps:  IterMD            1     111.127     111.127    99.27
elaps:  hsparse           1       0.017       0.017     0.02
elaps:  overlap           1       0.709       0.709     0.63
elaps:  IterSCF           1     101.540     101.540    90.70
elaps:  kinefsm           2       0.358       0.716     0.64
elaps:  nlefsm            2       1.469       2.938     2.62
elaps:  DHSCF             2       7.215      14.429    12.89
elaps:  DHSCF1            1       0.077       0.077     0.07
elaps:  DHSCF2            1       2.459       2.459     2.20
elaps:  REORD            18       0.000       0.005     0.00
elaps:  POISON            3       0.056       0.169     0.15
elaps:  DHSCF3            2       4.535       9.070     8.10
elaps:  rhoofd            2       1.444       2.888     2.58
elaps:  cellXC            2       0.223       0.447     0.40
elaps:  vmat              2       2.180       4.359     3.89
elaps:  MolMec            2       0.000       0.000     0.00
elaps:  diagon            1      90.982      90.982    81.27
elaps:  cdiag            40       1.476      59.046    52.75
elaps:  cdiag1           40       0.069       2.768     2.47
elaps:  cdiag2           40       0.240       9.612     8.59
elaps:  cdiag3           40       1.147      45.871    40.98
elaps:  cdiag4           40       0.020       0.784     0.70
elaps:  DHSCF4            1       2.818       2.818     2.52
elaps:  dfscf             1       2.640       2.640     2.36
elaps:  overfsm           1       0.026       0.026     0.02
elaps:  optical           1       0.000       0.000     0.00
  
>> End of run:   6-APR-2016  14:57:47
