Siesta Version:                                        siesta-3.2-pl-3
Architecture  : x86_64-unknown-linux-gnu--unknown
Compiler flags: mpiifort -g -O2 -fPIC -xSSE4.1 -fp-model source -shared-intel 
PARALLEL version

* Running on   12 nodes in parallel
>> Start of run:   6-APR-2016  14:01:49

                           ***********************       
                           *  WELCOME TO SIESTA  *       
                           ***********************       

reinit: Reading from standard input
************************** Dump of input data file ****************************
#(1) General system descriptors
SystemName            GRP_doping    # Descriptive name of the system
SystemLabel           GRP_doping    # Short name for naming files
%include STRUCT.fdf
%include KPT.fdf
%include BASIS.fdf
#%include TS.fdf # for transiesta calculation
#(4) DFT, Grid, SCF
XC.functional         GGA           # LDA or GGA (default = LDA)
XC.authors            PBE           # CA (Ceperley-Aldr) = PZ
                                    #    (Perdew-Zunger) - LDA - Default
                                    # PW92 (Perdew-Wang-92) - LDA
                                    # PBE (Perdew-Burke-Ernzerhof) - GGA
MeshCutoff            200.000000    Ry      # Default: 50.0 Ry ~ 0.444 Bohr
                                    #         100.0 Ry ~ 0.314 Bohr
MaxSCFIterations      500           # Default: 50
DM.MixingWeight       0.05          # Default: 0.25
DM.NumberPulay        10            # Default: 0
DM.PulayOnFile        F             # SystemLabel.P1, SystemLabel.P2
DM.Tolerance          1.d-4         # Default: 1.d-4
DM.UseSaveDM          .true.        # because of the bug
SCFMustConverge       .true.
NeglNonOverlapInt     F             # Default: F
Diag.ParallelOverK    .true.
#(5) Eigenvalue problem: order-N or diagonalization
SolutionMethod        Diagon        # or Transiesta
ElectronicTemperature 300.0 K       # Default: 300.0 K
#(6) Molecular dynamics and relaxations
#MD.TypeOfRun          CG            # Type of dynamics:
#MD.VariableCell       F
#MD.NumCGsteps         0           # 0 for single-point / 100 for gopt
#MD.MaxCGDispl         0.2 Bohr      # Default: 0.2 Bohr
#MD.MaxForceTol        0.02 eV/Ang   # Default: 0.04 eV/Ang
#MD.MaxStressTol       1.0 GPa       # Default: 1.0 GPa
************************** End of input data file *****************************

reinit: -----------------------------------------------------------------------
reinit: System Name: GRP_doping
reinit: -----------------------------------------------------------------------
reinit: System Label: GRP_doping                                                  
reinit: -----------------------------------------------------------------------

initatom: Reading input for the pseudopotentials and atomic orbitals ----------
 Species number:            1  Label: B Atomic number:           5
 Species number:            2  Label: C Atomic number:           6
Ground state valence configuration:   2s02  2p01
Reading pseudopotential information in formatted form from B.psf

Valence configuration for pseudopotential generation:
2s( 2.00) rc: 1.74
2p( 1.00) rc: 1.74
3d( 0.00) rc: 1.74
4f( 0.00) rc: 1.74
Ground state valence configuration:   2s02  2p02
Reading pseudopotential information in formatted form from C.psf

Valence configuration for pseudopotential generation:
2s( 2.00) rc: 1.54
2p( 2.00) rc: 1.54
3d( 0.00) rc: 1.54
4f( 0.00) rc: 1.54
For B, standard SIESTA heuristics set lmxkb to 3
 (one more than the basis l, including polarization orbitals).
Use PS.lmax or PS.KBprojectors blocks to override.
For C, standard SIESTA heuristics set lmxkb to 3
 (one more than the basis l, including polarization orbitals).
Use PS.lmax or PS.KBprojectors blocks to override.

<basis_specs>
===============================================================================
B                    Z=   5    Mass=  10.810        Charge= 0.17977+309
Lmxo=1 Lmxkb= 3    BasisType=split      Semic=F
L=0  Nsemic=0  Cnfigmx=2
          n=1  nzeta=2  polorb=0
            splnorm:   0.15000    
               vcte:    0.0000    
               rinn:    0.0000    
                rcs:    0.0000      0.0000    
            lambdas:    1.0000      1.0000    
L=1  Nsemic=0  Cnfigmx=2
          n=1  nzeta=2  polorb=1
            splnorm:   0.15000    
               vcte:    0.0000    
               rinn:    0.0000    
                rcs:    0.0000      0.0000    
            lambdas:    1.0000      1.0000    
-------------------------------------------------------------------------------
L=0  Nkbl=1  erefs: 0.17977+309
L=1  Nkbl=1  erefs: 0.17977+309
L=2  Nkbl=1  erefs: 0.17977+309
L=3  Nkbl=1  erefs: 0.17977+309
===============================================================================
</basis_specs>

atom: Called for B                     (Z =   5)

read_vps: Pseudopotential generation method:
read_vps: ATM3      Troullier-Martins                       
Total valence charge:    3.00000

read_vps: Pseudopotential includes a core correction:
read_vps: Pseudo-core for xc-correction

xc_check: Exchange-correlation functional:
xc_check: GGA Perdew, Burke & Ernzerhof 1996
V l=0 = -2*Zval/r beyond r=  1.7165
V l=1 = -2*Zval/r beyond r=  1.7165
V l=2 = -2*Zval/r beyond r=  1.7165
V l=3 = -2*Zval/r beyond r=  1.6951
All V_l potentials equal beyond r=  1.7165
This should be close to max(r_c) in ps generation
All pots = -2*Zval/r beyond r=  1.7165

VLOCAL1: 99.0% of the norm of Vloc inside     14.733 Ry
VLOCAL1: 99.9% of the norm of Vloc inside     33.577 Ry
atom: Maximum radius for 4*pi*r*r*local-pseudopot. charge    2.04484
atom: Maximum radius for r*vlocal+2*Zval:    1.75994
GHOST: No ghost state for L =  0
GHOST: No ghost state for L =  1
GHOST: No ghost state for L =  2
GHOST: No ghost state for L =  3

KBgen: Kleinman-Bylander projectors: 
   l= 0   rc=  1.897051   el= -0.693730   Ekb=  4.595746   kbcos=  0.286105
   l= 1   rc=  1.920920   el= -0.265236   Ekb= -2.350715   kbcos= -0.315747
   l= 2   rc=  2.044840   el=  0.002055   Ekb= -0.690767   kbcos= -0.013822
   l= 3   rc=  2.149707   el=  0.003188   Ekb= -0.315358   kbcos= -0.002055

KBgen: Total number of  Kleinman-Bylander projectors:   16
atom: -------------------------------------------------------------------------

atom: SANKEY-TYPE ORBITALS:
atom: Selected multiple-zeta basis: split     

SPLIT: Orbitals with angular momentum L= 0

SPLIT: Basis orbitals for state 2s

SPLIT: PAO cut-off radius determined from an
SPLIT: energy shift=  0.007350 Ry

   izeta = 1
                 lambda =    1.000000
                     rc =    5.422032
                 energy =   -0.686029
                kinetic =    0.576707
    potential(screened) =   -1.262736
       potential(ionic) =   -3.271094

   izeta = 2
                 rmatch =    4.222573
              splitnorm =    0.150000
                 energy =   -0.602132
                kinetic =    0.858975
    potential(screened) =   -1.461107
       potential(ionic) =   -3.582536

SPLIT: Orbitals with angular momentum L= 1

SPLIT: Basis orbitals for state 2p

SPLIT: PAO cut-off radius determined from an
SPLIT: energy shift=  0.007350 Ry

   izeta = 1
                 lambda =    1.000000
                     rc =    6.790259
                 energy =   -0.258578
                kinetic =    1.481412
    potential(screened) =   -1.739989
       potential(ionic) =   -3.657461

   izeta = 2
                 rmatch =    4.608740
              splitnorm =    0.150000
                 energy =   -0.173757
                kinetic =    2.186690
    potential(screened) =   -2.360447
       potential(ionic) =   -4.464260

POLgen: Perturbative polarization orbital with L=  2

POLgen: Polarization orbital for state 2p

   izeta = 1
                     rc =    6.790259
                 energy =    0.684082
                kinetic =    1.471481
    potential(screened) =   -0.787399
       potential(ionic) =   -2.406985
atom: Total number of Sankey-type orbitals: 13

atm_pop: Valence configuration (for local Pseudopot. screening):
 2s( 2.00)                                                            
 2p( 1.00)                                                            
Vna: chval, zval:    3.00000   3.00000

Vna:  Cut-off radius for the neutral-atom potential:   6.790259
comcore: Pseudo-core radius Rcore=  2.122997

atom: _________________________________________________________________________

<basis_specs>
===============================================================================
C                    Z=   6    Mass=  12.010        Charge= 0.17977+309
Lmxo=1 Lmxkb= 3    BasisType=split      Semic=F
L=0  Nsemic=0  Cnfigmx=2
          n=1  nzeta=2  polorb=0
            splnorm:   0.15000    
               vcte:    0.0000    
               rinn:    0.0000    
                rcs:    0.0000      0.0000    
            lambdas:    1.0000      1.0000    
L=1  Nsemic=0  Cnfigmx=2
          n=1  nzeta=2  polorb=1
            splnorm:   0.15000    
               vcte:    0.0000    
               rinn:    0.0000    
                rcs:    0.0000      0.0000    
            lambdas:    1.0000      1.0000    
-------------------------------------------------------------------------------
L=0  Nkbl=1  erefs: 0.17977+309
L=1  Nkbl=1  erefs: 0.17977+309
L=2  Nkbl=1  erefs: 0.17977+309
L=3  Nkbl=1  erefs: 0.17977+309
===============================================================================
</basis_specs>

atom: Called for C                     (Z =   6)

read_vps: Pseudopotential generation method:
read_vps: ATM3      Troullier-Martins                       
Total valence charge:    4.00000

read_vps: Pseudopotential includes a core correction:
read_vps: Pseudo-core for xc-correction

xc_check: Exchange-correlation functional:
xc_check: GGA Perdew, Burke & Ernzerhof 1996
V l=0 = -2*Zval/r beyond r=  1.5227
V l=1 = -2*Zval/r beyond r=  1.5227
V l=2 = -2*Zval/r beyond r=  1.5227
V l=3 = -2*Zval/r beyond r=  1.5038
All V_l potentials equal beyond r=  1.5227
This should be close to max(r_c) in ps generation
All pots = -2*Zval/r beyond r=  1.5227

VLOCAL1: 99.0% of the norm of Vloc inside     18.722 Ry
VLOCAL1: 99.9% of the norm of Vloc inside     42.668 Ry
atom: Maximum radius for 4*pi*r*r*local-pseudopot. charge    1.83678
atom: Maximum radius for r*vlocal+2*Zval:    1.58088
GHOST: No ghost state for L =  0
GHOST: No ghost state for L =  1
GHOST: No ghost state for L =  2
GHOST: No ghost state for L =  3

KBgen: Kleinman-Bylander projectors: 
   l= 0   rc=  1.704034   el= -1.009801   Ekb=  5.335044   kbcos=  0.316824
   l= 1   rc=  1.704034   el= -0.388707   Ekb= -3.785862   kbcos= -0.366464
   l= 2   rc=  1.791422   el=  0.001971   Ekb= -0.970471   kbcos= -0.009212
   l= 3   rc=  1.859892   el=  0.003065   Ekb= -0.399525   kbcos= -0.001223

KBgen: Total number of  Kleinman-Bylander projectors:   16
atom: -------------------------------------------------------------------------

atom: SANKEY-TYPE ORBITALS:
atom: Selected multiple-zeta basis: split     

SPLIT: Orbitals with angular momentum L= 0

SPLIT: Basis orbitals for state 2s

SPLIT: PAO cut-off radius determined from an
SPLIT: energy shift=  0.007350 Ry

   izeta = 1
                 lambda =    1.000000
                     rc =    4.632753
                 energy =   -1.002270
                kinetic =    0.855760
    potential(screened) =   -1.858031
       potential(ionic) =   -5.417575

   izeta = 2
                 rmatch =    3.431921
              splitnorm =    0.150000
                 energy =   -0.867111
                kinetic =    1.300804
    potential(screened) =   -2.167915
       potential(ionic) =   -5.962684

SPLIT: Orbitals with angular momentum L= 1

SPLIT: Basis orbitals for state 2p

SPLIT: PAO cut-off radius determined from an
SPLIT: energy shift=  0.007350 Ry

   izeta = 1
                 lambda =    1.000000
                     rc =    5.658549
                 energy =   -0.381140
                kinetic =    2.399701
    potential(screened) =   -2.780841
       potential(ionic) =   -6.206085

   izeta = 2
                 rmatch =    3.653288
              splitnorm =    0.150000
                 energy =   -0.249149
                kinetic =    3.542762
    potential(screened) =   -3.791911
       potential(ionic) =   -7.581078

POLgen: Perturbative polarization orbital with L=  2

POLgen: Polarization orbital for state 2p

   izeta = 1
                     rc =    5.658549
                 energy =    1.109913
                kinetic =    2.304789
    potential(screened) =   -1.194876
       potential(ionic) =   -4.013592
atom: Total number of Sankey-type orbitals: 13

atm_pop: Valence configuration (for local Pseudopot. screening):
 2s( 2.00)                                                            
 2p( 2.00)                                                            
Vna: chval, zval:    4.00000   4.00000

Vna:  Cut-off radius for the neutral-atom potential:   5.658549
comcore: Pseudo-core radius Rcore=  1.791422

atom: _________________________________________________________________________

prinput: Basis input ----------------------------------------------------------

PAO.BasisType split     

%block ChemicalSpeciesLabel
    1    5 B                       # Species index, atomic number, species label
    2    6 C                       # Species index, atomic number, species label
%endblock ChemicalSpeciesLabel

%block PAO.Basis                 # Define Basis set
B                     2                    # Species label, number of l-shells
 n=2   0   2                         # n, l, Nzeta 
   5.422      4.223   
   1.000      1.000   
 n=2   1   2 P   1                   # n, l, Nzeta, Polarization, NzetaPol
   6.790      4.609   
   1.000      1.000   
C                     2                    # Species label, number of l-shells
 n=2   0   2                         # n, l, Nzeta 
   4.633      3.432   
   1.000      1.000   
 n=2   1   2 P   1                   # n, l, Nzeta, Polarization, NzetaPol
   5.659      3.653   
   1.000      1.000   
%endblock PAO.Basis

prinput: ----------------------------------------------------------------------

coor:   Atomic-coordinates input format  =     Cartesian coordinates
coor:                                          (in Angstroms)

siesta: Atomic coordinates (Bohr) and species
siesta:      2.23554   1.32097   0.00000  1        1
siesta:     16.20434   9.38661   0.00000  1        2
siesta:      4.56367   2.66461   0.00000  2        3
siesta:     32.50328  21.48508   0.00000  2        4
siesta:     34.83141  22.82873   0.00000  2        5
siesta:     34.83116  17.45226   0.00000  2        6
siesta:     37.15930  18.79590   0.00000  2        7
siesta:     32.50291  13.41944   0.00000  2        8
siesta:     34.83104  14.76308   0.00000  2        9
siesta:     30.17465   9.38661   0.00000  2       10
siesta:     32.50278  10.73026   0.00000  2       11
siesta:     27.84639   5.35379   0.00000  2       12
siesta:     30.17453   6.69743   0.00000  2       13
siesta:     27.84714  21.48508   0.00000  2       14
siesta:     30.17527  22.82873   0.00000  2       15
siesta:      6.89168   1.32097   0.00000  2       16
siesta:      9.21981   2.66461   0.00000  2       17
siesta:     11.54782   1.32097   0.00000  2       18
siesta:     13.87595   2.66461   0.00000  2       19
siesta:     16.20396   1.32097   0.00000  2       20
siesta:     18.53210   2.66461   0.00000  2       21
siesta:     20.86199   1.32097   0.00000  2       22
siesta:     23.19013   2.66461   0.00000  2       23
siesta:     25.51813   1.32097   0.00000  2       24
siesta:     27.84627   2.66461   0.00000  2       25
siesta:      4.56380   5.35379   0.00000  2       26
siesta:      6.89193   6.69743   0.00000  2       27
siesta:      9.21994   5.35379   0.00000  2       28
siesta:     11.54807   6.69743   0.00000  2       29
siesta:     13.87608   5.35379   0.00000  2       30
siesta:     16.20421   6.69743   0.00000  2       31
siesta:     18.53411   5.35379   0.00000  2       32
siesta:     20.86224   6.69743   0.00000  2       33
siesta:     23.19025   5.35379   0.00000  2       34
siesta:     25.51838   6.69743   0.00000  2       35
siesta:      6.89205   9.38661   0.00000  2       36
siesta:      9.22019  10.73026   0.00000  2       37
siesta:     11.54820   9.38661   0.00000  2       38
siesta:     13.87633  10.73026   0.00000  2       39
siesta:     18.53247  10.73026   0.00000  2       40
siesta:     20.86237   9.38661   0.00000  2       41
siesta:     23.19050  10.73026   0.00000  2       42
siesta:      9.22031  13.41944   0.00000  2       43
siesta:     11.54845  14.76308   0.00000  2       44
siesta:     13.87645  13.41944   0.00000  2       45
siesta:     16.20459  14.76308   0.00000  2       46
siesta:     18.53448  13.41944   0.00000  2       47
siesta:     20.86262  14.76308   0.00000  2       48
siesta:     11.54857  17.45226   0.00000  2       49
siesta:     13.87670  18.79590   0.00000  2       50
siesta:     16.20471  17.45226   0.00000  2       51
siesta:     18.53284  18.79590   0.00000  2       52
siesta:     13.87683  21.48508   0.00000  2       53
siesta:     16.20496  22.82873   0.00000  2       54
siesta:     18.53486  21.48508   0.00000  2       55
siesta:     20.86299  22.82873   0.00000  2       56
siesta:     25.51851   9.38661   0.00000  2       57
siesta:     27.84664  10.73026   0.00000  2       58
siesta:     23.19063  13.41944   0.00000  2       59
siesta:     25.51876  14.76308   0.00000  2       60
siesta:     20.86274  17.45226   0.00000  2       61
siesta:     23.19088  18.79590   0.00000  2       62
siesta:     27.84677  13.41944   0.00000  2       63
siesta:     30.17490  14.76308   0.00000  2       64
siesta:     25.51888  17.45226   0.00000  2       65
siesta:     27.84702  18.79590   0.00000  2       66
siesta:     23.19100  21.48508   0.00000  2       67
siesta:     25.51913  22.82873   0.00000  2       68
siesta:     30.17503  17.45226   0.00000  2       69
siesta:     32.50316  18.79590   0.00000  2       70
siesta:     37.16131  21.48508   0.00000  2       71
siesta:     39.48945  22.82873   0.00000  2       72

siesta: System type = slab      

initatomlists: Number of atoms, orbitals, and projectors:     72   936  1152

siesta: ******************** Simulation parameters ****************************
siesta:
siesta: The following are some of the parameters of the simulation.
siesta: A complete list of the parameters used, including default values,
siesta: can be found in file out.fdf
siesta:
redata: Non-Collinear-spin run           =     F
redata: SpinPolarized (Up/Down) run      =     F
redata: Number of spin components        =     1
redata: Long output                      =     F
redata: Number of Atomic Species         =        2
redata: Charge density info will appear in .RHO file
redata: Write Mulliken Pop.              =     NO
redata: Mesh Cutoff                      =   200.0000  Ry
redata: Net charge of the system         =     0.0000 |e|
redata: Max. number of SCF Iter          =      500
redata: SCF convergence failure will abort job
redata: Performing Pulay mixing using    =    10 iterations
redata: Mix DM in first SCF step ?       =     F
redata: Write Pulay info on disk?        =     F
redata: Discard 1st Pulay DM after  kick =     F
redata: New DM Mixing Weight             =     0.0500
redata: New DM Occupancy tolerance       = 0.000000000001
redata: No kicks to SCF
redata: DM Mixing Weight for Kicks       =     0.5000
redata: DM Tolerance for SCF             =     0.000100
redata: Require Energy convergence for SCF =     F
redata: DM Energy tolerance for SCF      =     0.000100 eV
redata: Require Harris convergence for SCF =     F
redata: DM Harris energy tolerance for SCF =     0.000100 eV
redata: Using Saved Data (generic)   =     F
redata: Use continuation files for DM    =     T
redata: Neglect nonoverlap interactions  =     F
redata: Method of Calculation            =     Diagonalization
redata: Divide and Conquer               =     T
redata: Electronic Temperature           =     0.0019  Ry
redata: Fix the spin of the system       =     F
redata: Dynamics option                  =     Verlet MD run
redata: Initial MD time step             =        1
redata:   Final MD time step             =        1
redata: Length of MD time step           =     1.0000  fs
redata: Initial Temperature of MD run    =     0.0000  K
redata: Perform a MD quench              =     F
redata: ***********************************************************************
Total number of electrons:   286.000000
Total ionic charge:   286.000000

* ProcessorY, Blocksize:    3  24

k-point displ. along   1 input, could be:     0.50    0.00
k-point displ. along   2 input, could be:     0.50    0.00
 Kpoints in:          231 . Kpoints trimmed:          231

siesta: k-grid: Number of k-points =   231
siesta: k-grid: Cutoff (effective) =     5.000 Ang
siesta: k-grid: Supercell and displacements
siesta: k-grid:   21   0   0      0.500
siesta: k-grid:    0  21   0      0.500
siesta: k-grid:    0   0   1      0.000
Naive supercell factors:     2    2    2

superc: Internal auxiliary supercell:     2 x     2 x     2  =       8
superc: Number of atoms, orbitals, and projectors:    576   7488   9216

* Maximum dynamic memory allocated =     4 MB

siesta:                 ==============================
                            Begin MD step =      1
                        ==============================

superc: Internal auxiliary supercell:     2 x     2 x     2  =       8
superc: Number of atoms, orbitals, and projectors:    576   7488   9216

outcell: Unit cell vectors (Ang):
       14.785000    0.000000    0.000000
        7.393000   12.805052    0.000000
        0.000000    0.000000   10.000000

outcell: Cell vector modules (Ang)   :   14.785000   14.786000   10.000000
outcell: Cell angles (23,13,12) (deg):     90.0000     90.0000     60.0000
outcell: Cell volume (Ang**3)        :   1893.2269
New_DM. Step:     1
Initializing Density Matrix...

iodm: Reading Density Matrix from files

InitMesh: MESH =   120 x   120 x    90 =     1296000
InitMesh: Mesh cutoff (required, used) =   200.000   223.865 Ry

* Maximum dynamic memory allocated =   144 MB

stepf: Fermi-Dirac step function

siesta: Program's energy decomposition (eV):
siesta: Ebs     =     -3883.412078
siesta: Eions   =     18146.897649
siesta: Ena     =      3930.206828
siesta: Ekin    =      7735.875105
siesta: Enl     =      -770.065418
siesta: DEna    =      -297.909990
siesta: DUscf   =        27.531055
siesta: DUext   =         0.000000
siesta: Exc     =     -4046.403652
siesta: eta*DQ  =         0.000000
siesta: Emadel  =         0.000000
siesta: Emeta   =         0.000000
siesta: Emolmec =         0.000000
siesta: Ekinion =         0.000000
siesta: Eharris =    -11567.663798
siesta: Etot    =    -11567.663721
siesta: FreeEng =    -11567.663721

siesta: iscf   Eharris(eV)      E_KS(eV)   FreeEng(eV)   dDmax  Ef(eV)
siesta:    1   -11567.6638   -11567.6637   -11567.6637  0.0000 -5.3207
timer: Routine,Calls,Time,% = IterSCF        1    1384.874  98.90
elaps: Routine,Calls,Wall,% = IterSCF        1     120.700  98.90

siesta: E_KS(eV) =           -11567.6638

siesta: E_KS - E_eggbox =    -11567.6638

siesta: Atomic forces (eV/Ang):
----------------------------------------
   Tot    0.191827   -0.269445    0.000000
----------------------------------------
   Max    3.440260
   Res    0.590373    sqrt( Sum f_i^2 / 3N )
----------------------------------------
   Max    3.440260    constrained

Stress-tensor-Voigt (kbar):      -54.02      -53.14       -0.05       -0.42        0.00        0.00
(Free)E + p*V (eV/cell)   -11525.4516
Target enthalpy (eV/cell)   -11567.6756

siesta: Stress tensor (static) (eV/Ang**3):
        -0.033713   -0.000259    0.000000
        -0.000259   -0.033165    0.000000
         0.000000    0.000000   -0.000030

siesta: Pressure (static):         35.73321474  kBar

siesta: Stress tensor (total) (eV/Ang**3):
        -0.033713   -0.000259    0.000000
        -0.000259   -0.033165    0.000000
         0.000000    0.000000   -0.000030

siesta: Pressure (total):         35.73321474  kBar

siesta: Temp_ion =       0.000 K

* Maximum dynamic memory allocated =   239 MB

siesta: Program's energy decomposition (eV):
siesta: Ebs     =     -3883.412078
siesta: Eions   =     18146.897649
siesta: Ena     =      3930.206828
siesta: Ekin    =      7735.871383
siesta: Enl     =      -770.064531
siesta: DEna    =      -297.907752
siesta: DUscf   =        27.530852
siesta: DUext   =         0.000000
siesta: Exc     =     -4046.402928
siesta: eta*DQ  =         0.000000
siesta: Emadel  =         0.000000
siesta: Emeta   =         0.000000
siesta: Emolmec =         0.000000
siesta: Ekinion =         0.000000
siesta: Eharris =    -11567.663798
siesta: Etot    =    -11567.663797
siesta: FreeEng =    -11567.675617

siesta: Final energy (eV):
siesta:  Band Struct. =   -3883.412078
siesta:       Kinetic =    7735.871383
siesta:       Hartree =   22791.151942
siesta:    Ext. field =       0.000000
siesta:   Exch.-corr. =   -4046.402928
siesta:  Ion-electron =  -52699.594158
siesta:       Ion-ion =   14651.309964
siesta:       Ekinion =       0.000000
siesta:         Total =  -11567.663797

siesta: Atomic forces (eV/Ang):
siesta:      1   -0.005493   -0.026922    0.000000
siesta:      2    0.016734   -0.006211    0.000000
siesta:      3    2.906056    1.676921    0.000000
siesta:      4    0.031665    0.017227    0.000000
siesta:      5   -0.026697    0.049766    0.000000
siesta:      6    0.037427   -0.002582    0.000000
siesta:      7    0.018628   -0.068128    0.000000
siesta:      8    0.017334   -0.042980    0.000000
siesta:      9    0.006711    0.001648    0.000000
siesta:     10    0.008270   -0.257962    0.000000
siesta:     11    0.070421    0.035214    0.000000
siesta:     12   -0.556174   -0.245284    0.000000
siesta:     13    0.012248    0.314355    0.000000
siesta:     14   -0.014654    0.015401    0.000000
siesta:     15   -0.004141    0.017972    0.000000
siesta:     16    0.088233    0.573836    0.000000
siesta:     17    0.055239   -0.256455    0.000000
siesta:     18    0.066515   -0.059747    0.000000
siesta:     19   -0.167471   -0.044863    0.000000
siesta:     20    0.012697    0.004574    0.000000
siesta:     21    0.204134   -0.049404    0.000000
siesta:     22   -0.085226   -0.054610    0.000000
siesta:     23   -0.062055   -0.257692    0.000000
siesta:     24   -0.068165    0.572338    0.000000
siesta:     25   -2.894533    1.670272    0.000000
siesta:     26    0.558166   -0.238681    0.000000
siesta:     27   -0.197068    0.180845    0.000000
siesta:     28    0.235842    0.120373    0.000000
siesta:     29   -0.282617   -0.160149    0.000000
siesta:     30    0.519085   -0.302395    0.000000
siesta:     31    0.021344   -3.440260    0.000000
siesta:     32   -0.543247   -0.292508    0.000000
siesta:     33    0.278699   -0.159828    0.000000
siesta:     34   -0.222082    0.120175    0.000000
siesta:     35    0.191313    0.180186    0.000000
siesta:     36   -0.003041    0.055193    0.000000
siesta:     37   -0.124823   -0.117189    0.000000
siesta:     38    0.012558    0.571576    0.000000
siesta:     39   -2.988560    1.725150    0.000000
siesta:     40    3.026962    1.720813    0.000000
siesta:     41   -0.028740    0.581797    0.000000
siesta:     42    0.115700   -0.118117    0.000000
siesta:     43    0.022362   -0.024000    0.000000
siesta:     44    0.042584    0.170310    0.000000
siesta:     45   -0.492494   -0.310030    0.000000
siesta:     46    0.028736    0.326531    0.000000
siesta:     47    0.471176   -0.300567    0.000000
siesta:     48   -0.047865    0.169131    0.000000
siesta:     49   -0.056679   -0.043355    0.000000
siesta:     50   -0.253147    0.081691    0.000000
siesta:     51    0.008119   -0.274366    0.000000
siesta:     52    0.289032    0.074298    0.000000
siesta:     53    0.509110   -0.387990    0.000000
siesta:     54    0.026745   -3.319496    0.000000
siesta:     55   -0.516894   -0.377280    0.000000
siesta:     56    0.262366   -0.133401    0.000000
siesta:     57    0.002341    0.049039    0.000000
siesta:     58   -0.059135    0.040965    0.000000
siesta:     59   -0.024015   -0.029507    0.000000
siesta:     60    0.004967    0.006483    0.000000
siesta:     61    0.027773   -0.038082    0.000000
siesta:     62   -0.002451   -0.065832    0.000000
siesta:     63   -0.002198   -0.041488    0.000000
siesta:     64   -0.001773    0.019276    0.000000
siesta:     65   -0.023260   -0.004607    0.000000
siesta:     66    0.012181   -0.006856    0.000000
siesta:     67   -0.205251    0.114362    0.000000
siesta:     68    0.056251    0.055378    0.000000
siesta:     69    0.006667   -0.011044    0.000000
siesta:     70   -0.015498   -0.006595    0.000000
siesta:     71    0.178007    0.120725    0.000000
siesta:     72   -0.293124   -0.126809    0.000000
siesta: ----------------------------------------
siesta:    Tot    0.191827   -0.269445    0.000000

siesta: Stress tensor (static) (eV/Ang**3):
siesta:    -0.033713   -0.000259    0.000000
siesta:    -0.000259   -0.033165    0.000000
siesta:     0.000000    0.000000   -0.000030

siesta: Cell volume =       1893.226895 Ang**3

siesta: Pressure (static):
siesta:                Solid            Molecule  Units
siesta:           0.00024290          0.00037687  Ry/Bohr**3
siesta:           0.02230268          0.03460296  eV/Ang**3
siesta:          35.73321474         55.44064647  kBar
(Free)E+ p_basis*V_orbitals  =      -11536.306091
(Free)Eharris+ p_basis*V_orbitals  =      -11536.306168

siesta: Electric dipole (a.u.)  =    0.000000    0.000000    0.000000
siesta: Electric dipole (Debye) =    0.000000    0.000000    0.000000

* Maximum dynamic memory allocated : Node    0 =   239 MB
* Maximum dynamic memory allocated : Node    1 =   149 MB
* Maximum dynamic memory allocated : Node    2 =   150 MB
* Maximum dynamic memory allocated : Node    3 =   227 MB
* Maximum dynamic memory allocated : Node    4 =   233 MB
* Maximum dynamic memory allocated : Node    5 =   144 MB
* Maximum dynamic memory allocated : Node    6 =   146 MB
* Maximum dynamic memory allocated : Node    7 =   227 MB
* Maximum dynamic memory allocated : Node    8 =   233 MB
* Maximum dynamic memory allocated : Node    9 =   144 MB
* Maximum dynamic memory allocated : Node   10 =   146 MB
* Maximum dynamic memory allocated : Node   11 =   226 MB

* Maximum memory occured during cdiag                         

timer: CPU execution times:
timer:  Routine       Calls   Time/call    Tot.time        %
timer:  siesta            1    1542.681    1542.681   100.00
timer:  Setup             1       3.152       3.152     0.20
timer:  bands             1       0.016       0.016     0.00
timer:  writewave         1       0.019       0.019     0.00
timer:  KSV_init          1       0.003       0.003     0.00
timer:  IterMD            1    1533.148    1533.148    99.38
timer:  hsparse           1       0.280       0.280     0.02
timer:  overlap           1       4.826       4.826     0.31
timer:  IterSCF           1    1384.874    1384.874    89.77
timer:  kinefsm           2       2.452       4.904     0.32
timer:  nlefsm            2      19.320      38.640     2.50
timer:  DHSCF             2      92.984     185.968    12.05
timer:  DHSCF1            1       1.195       1.195     0.08
timer:  DHSCF2            1      30.781      30.781     2.00
timer:  REORD            18       0.003       0.046     0.00
timer:  POISON            3       0.650       1.951     0.13
timer:  DHSCF3            2      65.194     130.387     8.45
timer:  rhoofd            2      12.693      25.385     1.65
timer:  cellXC            2       3.409       6.818     0.44
timer:  vmat              2      32.894      65.787     4.26
timer:  MolMec            2       0.001       0.002     0.00
timer:  diagon            1    1239.501    1239.501    80.35
timer:  cdiag            40      16.922     650.950    42.20
timer:  cdiag1           40       0.885      34.089     2.21
timer:  cdiag2           40       3.073     118.337     7.67
timer:  cdiag3           40      12.767     490.921    31.82
timer:  cdiag4           40       0.194       7.474     0.48
timer:  DHSCF4            1      23.552      23.552     1.53
timer:  dfscf             1      21.568      21.568     1.40
timer:  overfsm           1       0.279       0.279     0.02
timer:  optical           1       5.840       5.840     0.38
  

elaps: ELAPSED times:
elaps:  Routine       Calls   Time/call    Tot.time        %
elaps:  siesta            1     134.451     134.451   100.00
elaps:  Setup             1       0.275       0.275     0.20
elaps:  bands             1       0.001       0.001     0.00
elaps:  writewave         1       0.002       0.002     0.00
elaps:  KSV_init          1       0.000       0.000     0.00
elaps:  IterMD            1     133.620     133.620    99.38
elaps:  hsparse           1       0.028       0.028     0.02
elaps:  overlap           1       0.964       0.964     0.72
elaps:  IterSCF           1     120.700     120.700    89.77
elaps:  kinefsm           2       0.378       0.755     0.56
elaps:  nlefsm            2       2.324       4.648     3.46
elaps:  DHSCF             2       9.068      18.136    13.49
elaps:  DHSCF1            1       0.102       0.102     0.08
elaps:  DHSCF2            1       2.684       2.684     2.00
elaps:  REORD            18       0.000       0.005     0.00
elaps:  POISON            3       0.060       0.179     0.13
elaps:  DHSCF3            2       5.683      11.366     8.45
elaps:  rhoofd            2       2.266       4.532     3.37
elaps:  cellXC            2       0.297       0.594     0.44
elaps:  vmat              2       2.866       5.733     4.26
elaps:  MolMec            2       0.000       0.000     0.00
elaps:  diagon            1     108.031     108.031    80.35
elaps:  cdiag            40       1.994      79.749    59.31
elaps:  cdiag1           40       0.112       4.471     3.33
elaps:  cdiag2           40       0.384      15.350    11.42
elaps:  cdiag3           40       1.471      58.842    43.76
elaps:  cdiag4           40       0.027       1.078     0.80
elaps:  DHSCF4            1       3.980       3.980     2.96
elaps:  dfscf             1       3.707       3.707     2.76
elaps:  overfsm           1       0.031       0.031     0.02
elaps:  optical           1       0.000       0.000     0.00
  
>> End of run:   6-APR-2016  14:04:04
