Siesta Version:                                        siesta-3.2-pl-3
Architecture  : x86_64-unknown-linux-gnu--unknown
Compiler flags: mpiifort -g -O2 -fPIC -xSSE4.1 -fp-model source -shared-intel 
PARALLEL version

* Running on    8 nodes in parallel
>> Start of run:  29-APR-2016  17:01:01

                           ***********************       
                           *  WELCOME TO SIESTA  *       
                           ***********************       

reinit: Reading from standard input
************************** Dump of input data file ****************************
#(1) General system descriptors
SystemName            GRP_doping    # Descriptive name of the system
SystemLabel           GRP_doping    # Short name for naming files
%include STRUCT.fdf
%include KPT.fdf
%include BASIS.fdf
#%include TS.fdf # for transiesta calculation
#(4) DFT, Grid, SCF
XC.functional         GGA           # LDA or GGA (default = LDA)
XC.authors            PBE           # CA (Ceperley-Aldr) = PZ
                                    #    (Perdew-Zunger) - LDA - Default
                                    # PW92 (Perdew-Wang-92) - LDA
                                    # PBE (Perdew-Burke-Ernzerhof) - GGA
MeshCutoff            200.000000    Ry      # Default: 50.0 Ry ~ 0.444 Bohr
                                    #         100.0 Ry ~ 0.314 Bohr
MaxSCFIterations      500           # Default: 50
DM.MixingWeight       0.05          # Default: 0.25
DM.NumberPulay        10            # Default: 0
DM.PulayOnFile        F             # SystemLabel.P1, SystemLabel.P2
DM.Tolerance          1.d-4         # Default: 1.d-4
DM.UseSaveDM          .true.        # because of the bug
SCFMustConverge       .true.
NeglNonOverlapInt     F             # Default: F
#(5) Eigenvalue problem: order-N or diagonalization
SolutionMethod        Diagon        # or Transiesta
ElectronicTemperature 300.0 K       # Default: 300.0 K
#(6) Molecular dynamics and relaxations
#MD.TypeOfRun          CG            # Type of dynamics:
#MD.VariableCell       F
#MD.NumCGsteps         0           # 0 for single-point / 100 for gopt
#MD.MaxCGDispl         0.2 Bohr      # Default: 0.2 Bohr
#MD.MaxForceTol        0.02 eV/Ang   # Default: 0.04 eV/Ang
#MD.MaxStressTol       1.0 GPa       # Default: 1.0 GPa
# Geometry Constraints
#%block GeometryConstraints
#	position from 1 to 44
#%endblock GeometryConstraints
BandLinesScale   pi/a
%block BandLines
 1   0.00000000  0.00000000  0.00000000
50   0.00000000  0.07809418  0.00000000
50   0.04509075  0.07809242  0.00000000
20   0.00000000  0.00000000  0.00000000
%endblock BandLines
************************** End of input data file *****************************

reinit: -----------------------------------------------------------------------
reinit: System Name: GRP_doping
reinit: -----------------------------------------------------------------------
reinit: System Label: GRP_doping                                                  
reinit: -----------------------------------------------------------------------

initatom: Reading input for the pseudopotentials and atomic orbitals ----------
 Species number:            1  Label: N Atomic number:           7
 Species number:            2  Label: C Atomic number:           6
Ground state valence configuration:   2s02  2p03
Reading pseudopotential information in formatted form from N.psf

Valence configuration for pseudopotential generation:
2s( 2.00) rc: 1.48
2p( 3.00) rc: 1.48
3d( 0.00) rc: 1.48
4f( 0.00) rc: 1.48
Ground state valence configuration:   2s02  2p02
Reading pseudopotential information in formatted form from C.psf

Valence configuration for pseudopotential generation:
2s( 2.00) rc: 1.54
2p( 2.00) rc: 1.54
3d( 0.00) rc: 1.54
4f( 0.00) rc: 1.54
For N, standard SIESTA heuristics set lmxkb to 3
 (one more than the basis l, including polarization orbitals).
Use PS.lmax or PS.KBprojectors blocks to override.
For C, standard SIESTA heuristics set lmxkb to 3
 (one more than the basis l, including polarization orbitals).
Use PS.lmax or PS.KBprojectors blocks to override.

<basis_specs>
===============================================================================
N                    Z=   7    Mass=  14.010        Charge= 0.17977+309
Lmxo=1 Lmxkb= 3    BasisType=split      Semic=F
L=0  Nsemic=0  Cnfigmx=2
          n=1  nzeta=2  polorb=0
            splnorm:   0.15000    
               vcte:    0.0000    
               rinn:    0.0000    
                rcs:    0.0000      0.0000    
            lambdas:    1.0000      1.0000    
L=1  Nsemic=0  Cnfigmx=2
          n=1  nzeta=2  polorb=1
            splnorm:   0.15000    
               vcte:    0.0000    
               rinn:    0.0000    
                rcs:    0.0000      0.0000    
            lambdas:    1.0000      1.0000    
-------------------------------------------------------------------------------
L=0  Nkbl=1  erefs: 0.17977+309
L=1  Nkbl=1  erefs: 0.17977+309
L=2  Nkbl=1  erefs: 0.17977+309
L=3  Nkbl=1  erefs: 0.17977+309
===============================================================================
</basis_specs>

atom: Called for N                     (Z =   7)

read_vps: Pseudopotential generation method:
read_vps: ATM3      Troullier-Martins                       
Total valence charge:    5.00000

read_vps: Pseudopotential includes a core correction:
read_vps: Pseudo-core for xc-correction

xc_check: Exchange-correlation functional:
xc_check: GGA Perdew, Burke & Ernzerhof 1996
V l=0 = -2*Zval/r beyond r=  1.4606
V l=1 = -2*Zval/r beyond r=  1.4606
V l=2 = -2*Zval/r beyond r=  1.4606
V l=3 = -2*Zval/r beyond r=  1.4606
All V_l potentials equal beyond r=  1.4606
This should be close to max(r_c) in ps generation
All pots = -2*Zval/r beyond r=  1.4606

VLOCAL1: 99.0% of the norm of Vloc inside     20.347 Ry
VLOCAL1: 99.9% of the norm of Vloc inside     46.372 Ry
atom: Maximum radius for 4*pi*r*r*local-pseudopot. charge    1.76189
atom: Maximum radius for r*vlocal+2*Zval:    1.53550
GHOST: No ghost state for L =  0
GHOST: No ghost state for L =  1
GHOST: No ghost state for L =  2
GHOST: No ghost state for L =  3

KBgen: Kleinman-Bylander projectors: 
   l= 0   rc=  1.634559   el= -1.363963   Ekb=  5.296955   kbcos=  0.335621
   l= 1   rc=  1.614250   el= -0.521451   Ekb= -5.259161   kbcos= -0.433408
   l= 2   rc=  1.718383   el=  0.001991   Ekb= -1.271464   kbcos= -0.007566
   l= 3   rc=  1.761893   el=  0.003093   Ekb= -0.494769   kbcos= -0.001015

KBgen: Total number of  Kleinman-Bylander projectors:   16
atom: -------------------------------------------------------------------------

atom: SANKEY-TYPE ORBITALS:
atom: Selected multiple-zeta basis: split     

SPLIT: Orbitals with angular momentum L= 0

SPLIT: Basis orbitals for state 2s

SPLIT: PAO cut-off radius determined from an
SPLIT: energy shift=  0.007350 Ry

   izeta = 1
                 lambda =    1.000000
                     rc =    4.071465
                 energy =   -1.356470
                kinetic =    1.176977
    potential(screened) =   -2.533447
       potential(ionic) =   -8.057990

   izeta = 2
                 rmatch =    2.905100
              splitnorm =    0.150000
                 energy =   -1.158343
                kinetic =    1.813009
    potential(screened) =   -2.971352
       potential(ionic) =   -8.901931

SPLIT: Orbitals with angular momentum L= 1

SPLIT: Basis orbitals for state 2p

SPLIT: PAO cut-off radius determined from an
SPLIT: energy shift=  0.007350 Ry

   izeta = 1
                 lambda =    1.000000
                     rc =    4.972977
                 energy =   -0.513884
                kinetic =    3.441732
    potential(screened) =   -3.955616
       potential(ionic) =   -9.287901

   izeta = 2
                 rmatch =    3.054066
              splitnorm =    0.150000
                 energy =   -0.318226
                kinetic =    5.125348
    potential(screened) =   -5.443573
       potential(ionic) =  -11.380999

POLgen: Perturbative polarization orbital with L=  2

POLgen: Polarization orbital for state 2p

   izeta = 1
                     rc =    4.972977
                 energy =    1.607437
                kinetic =    3.268125
    potential(screened) =   -1.660688
       potential(ionic) =   -5.973652
atom: Total number of Sankey-type orbitals: 13

atm_pop: Valence configuration (for local Pseudopot. screening):
 2s( 2.00)                                                            
 2p( 3.00)                                                            
Vna: chval, zval:    5.00000   5.00000

Vna:  Cut-off radius for the neutral-atom potential:   4.972977
comcore: Pseudo-core radius Rcore=  1.554824

atom: _________________________________________________________________________

<basis_specs>
===============================================================================
C                    Z=   6    Mass=  12.010        Charge= 0.17977+309
Lmxo=1 Lmxkb= 3    BasisType=split      Semic=F
L=0  Nsemic=0  Cnfigmx=2
          n=1  nzeta=2  polorb=0
            splnorm:   0.15000    
               vcte:    0.0000    
               rinn:    0.0000    
                rcs:    0.0000      0.0000    
            lambdas:    1.0000      1.0000    
L=1  Nsemic=0  Cnfigmx=2
          n=1  nzeta=2  polorb=1
            splnorm:   0.15000    
               vcte:    0.0000    
               rinn:    0.0000    
                rcs:    0.0000      0.0000    
            lambdas:    1.0000      1.0000    
-------------------------------------------------------------------------------
L=0  Nkbl=1  erefs: 0.17977+309
L=1  Nkbl=1  erefs: 0.17977+309
L=2  Nkbl=1  erefs: 0.17977+309
L=3  Nkbl=1  erefs: 0.17977+309
===============================================================================
</basis_specs>

atom: Called for C                     (Z =   6)

read_vps: Pseudopotential generation method:
read_vps: ATM3      Troullier-Martins                       
Total valence charge:    4.00000

read_vps: Pseudopotential includes a core correction:
read_vps: Pseudo-core for xc-correction

xc_check: Exchange-correlation functional:
xc_check: GGA Perdew, Burke & Ernzerhof 1996
V l=0 = -2*Zval/r beyond r=  1.5227
V l=1 = -2*Zval/r beyond r=  1.5227
V l=2 = -2*Zval/r beyond r=  1.5227
V l=3 = -2*Zval/r beyond r=  1.5038
All V_l potentials equal beyond r=  1.5227
This should be close to max(r_c) in ps generation
All pots = -2*Zval/r beyond r=  1.5227

VLOCAL1: 99.0% of the norm of Vloc inside     18.722 Ry
VLOCAL1: 99.9% of the norm of Vloc inside     42.668 Ry
atom: Maximum radius for 4*pi*r*r*local-pseudopot. charge    1.83678
atom: Maximum radius for r*vlocal+2*Zval:    1.58088
GHOST: No ghost state for L =  0
GHOST: No ghost state for L =  1
GHOST: No ghost state for L =  2
GHOST: No ghost state for L =  3

KBgen: Kleinman-Bylander projectors: 
   l= 0   rc=  1.704034   el= -1.009801   Ekb=  5.335044   kbcos=  0.316824
   l= 1   rc=  1.704034   el= -0.388707   Ekb= -3.785862   kbcos= -0.366464
   l= 2   rc=  1.791422   el=  0.001971   Ekb= -0.970471   kbcos= -0.009212
   l= 3   rc=  1.859892   el=  0.003065   Ekb= -0.399525   kbcos= -0.001223

KBgen: Total number of  Kleinman-Bylander projectors:   16
atom: -------------------------------------------------------------------------

atom: SANKEY-TYPE ORBITALS:
atom: Selected multiple-zeta basis: split     

SPLIT: Orbitals with angular momentum L= 0

SPLIT: Basis orbitals for state 2s

SPLIT: PAO cut-off radius determined from an
SPLIT: energy shift=  0.007350 Ry

   izeta = 1
                 lambda =    1.000000
                     rc =    4.632753
                 energy =   -1.002270
                kinetic =    0.855760
    potential(screened) =   -1.858031
       potential(ionic) =   -5.417575

   izeta = 2
                 rmatch =    3.431921
              splitnorm =    0.150000
                 energy =   -0.867111
                kinetic =    1.300804
    potential(screened) =   -2.167915
       potential(ionic) =   -5.962684

SPLIT: Orbitals with angular momentum L= 1

SPLIT: Basis orbitals for state 2p

SPLIT: PAO cut-off radius determined from an
SPLIT: energy shift=  0.007350 Ry

   izeta = 1
                 lambda =    1.000000
                     rc =    5.658549
                 energy =   -0.381140
                kinetic =    2.399701
    potential(screened) =   -2.780841
       potential(ionic) =   -6.206085

   izeta = 2
                 rmatch =    3.653288
              splitnorm =    0.150000
                 energy =   -0.249149
                kinetic =    3.542762
    potential(screened) =   -3.791911
       potential(ionic) =   -7.581078

POLgen: Perturbative polarization orbital with L=  2

POLgen: Polarization orbital for state 2p

   izeta = 1
                     rc =    5.658549
                 energy =    1.109913
                kinetic =    2.304789
    potential(screened) =   -1.194876
       potential(ionic) =   -4.013592
atom: Total number of Sankey-type orbitals: 13

atm_pop: Valence configuration (for local Pseudopot. screening):
 2s( 2.00)                                                            
 2p( 2.00)                                                            
Vna: chval, zval:    4.00000   4.00000

Vna:  Cut-off radius for the neutral-atom potential:   5.658549
comcore: Pseudo-core radius Rcore=  1.791422

atom: _________________________________________________________________________

prinput: Basis input ----------------------------------------------------------

PAO.BasisType split     

%block ChemicalSpeciesLabel
    1    7 N                       # Species index, atomic number, species label
    2    6 C                       # Species index, atomic number, species label
%endblock ChemicalSpeciesLabel

%block PAO.Basis                 # Define Basis set
N                     2                    # Species label, number of l-shells
 n=2   0   2                         # n, l, Nzeta 
   4.071      2.905   
   1.000      1.000   
 n=2   1   2 P   1                   # n, l, Nzeta, Polarization, NzetaPol
   4.973      3.054   
   1.000      1.000   
C                     2                    # Species label, number of l-shells
 n=2   0   2                         # n, l, Nzeta 
   4.633      3.432   
   1.000      1.000   
 n=2   1   2 P   1                   # n, l, Nzeta, Polarization, NzetaPol
   5.659      3.653   
   1.000      1.000   
%endblock PAO.Basis

prinput: ----------------------------------------------------------------------

coor:   Atomic-coordinates input format  =     Fractional

siesta: Atomic coordinates (Bohr) and species
siesta:     -2.35420  41.57980   0.00000  1        1
siesta:      2.30256  41.57980   0.00000  1        2
siesta:      4.63094  13.34970   0.00000  1        3
siesta:      4.63094  21.41544   0.00000  1        4
siesta:      6.95932  25.44831   0.00000  1        5
siesta:     -4.68258  13.34970   0.00000  1        6
siesta:     -7.01096  14.69411   0.00000  1        7
siesta:     -7.01096  17.38257   0.00000  1        8
siesta:     -4.68258  21.41544   0.00000  1        9
siesta:     -9.33934  18.72698   0.00000  1       10
siesta:     -7.01096  22.75985   0.00000  1       11
siesta:      4.63094  26.79272   0.00000  1       12
siesta:     -4.68258  26.79272   0.00000  1       13
siesta:     -7.01096  30.82560   0.00000  1       14
siesta:     -0.02582  34.85847   0.00000  1       15
siesta:     -0.02582  42.92421   0.00000  1       16
siesta:     -0.02582  45.61267   0.00000  1       17
siesta:     -0.02582   2.59549   0.00000  2       18
siesta:     -0.02582   5.28395   0.00000  2       19
siesta:     -2.35420  38.89134   0.00000  2       20
siesta:      2.30256  38.89134   0.00000  2       21
siesta:      4.63094  34.85847   0.00000  2       22
siesta:      4.63094  37.54693   0.00000  2       23
siesta:      6.95932  30.82560   0.00000  2       24
siesta:      6.95932  33.51406   0.00000  2       25
siesta:      9.28770  26.79272   0.00000  2       26
siesta:      9.28770  29.48119   0.00000  2       27
siesta:     -4.68258  34.85847   0.00000  2       28
siesta:     -4.68258  37.54693   0.00000  2       29
siesta:      2.30256   6.62836   0.00000  2       30
siesta:      2.30256   9.31683   0.00000  2       31
siesta:      4.63094  10.66124   0.00000  2       32
siesta:      6.95932  14.69411   0.00000  2       33
siesta:      6.95932  17.38257   0.00000  2       34
siesta:      9.28770  18.72698   0.00000  2       35
siesta:      9.28770  21.41544   0.00000  2       36
siesta:     11.61608  22.75985   0.00000  2       37
siesta:     11.61608  25.44831   0.00000  2       38
siesta:     -2.35420   6.62836   0.00000  2       39
siesta:     -2.35420   9.31683   0.00000  2       40
siesta:     -0.02582  10.66124   0.00000  2       41
siesta:     -0.02582  13.34970   0.00000  2       42
siesta:      2.30256  14.69411   0.00000  2       43
siesta:      2.30256  17.38257   0.00000  2       44
siesta:      4.63094  18.72698   0.00000  2       45
siesta:      6.95932  22.75985   0.00000  2       46
siesta:     -4.68258  10.66124   0.00000  2       47
siesta:     -2.35420  14.69411   0.00000  2       48
siesta:     -2.35420  17.38257   0.00000  2       49
siesta:     -0.02582  18.72698   0.00000  2       50
siesta:     -0.02582  21.41544   0.00000  2       51
siesta:      2.30256  22.75985   0.00000  2       52
siesta:      2.30256  25.44831   0.00000  2       53
siesta:     -4.68258  18.72698   0.00000  2       54
siesta:     -2.35420  22.75985   0.00000  2       55
siesta:     -2.35420  25.44831   0.00000  2       56
siesta:     -9.33934  21.41544   0.00000  2       57
siesta:     -7.01096  25.44831   0.00000  2       58
siesta:    -11.66772  22.75985   0.00000  2       59
siesta:    -11.66772  25.44831   0.00000  2       60
siesta:     -9.33934  26.79272   0.00000  2       61
siesta:     -9.33934  29.48119   0.00000  2       62
siesta:      4.63094  29.48119   0.00000  2       63
siesta:     -0.02582  26.79272   0.00000  2       64
siesta:     -0.02582  29.48119   0.00000  2       65
siesta:     -4.68258  29.48119   0.00000  2       66
siesta:      2.30256  30.82560   0.00000  2       67
siesta:      2.30256  33.51406   0.00000  2       68
siesta:     -2.35420  30.82560   0.00000  2       69
siesta:     -2.35420  33.51406   0.00000  2       70
siesta:     -7.01096  33.51406   0.00000  2       71
siesta:     -0.02582  37.54693   0.00000  2       72

siesta: System type = slab      

initatomlists: Number of atoms, orbitals, and projectors:     72   936  1152

siesta: ******************** Simulation parameters ****************************
siesta:
siesta: The following are some of the parameters of the simulation.
siesta: A complete list of the parameters used, including default values,
siesta: can be found in file out.fdf
siesta:
redata: Non-Collinear-spin run           =     F
redata: SpinPolarized (Up/Down) run      =     F
redata: Number of spin components        =     1
redata: Long output                      =     F
redata: Number of Atomic Species         =        2
redata: Charge density info will appear in .RHO file
redata: Write Mulliken Pop.              =     NO
redata: Mesh Cutoff                      =   200.0000  Ry
redata: Net charge of the system         =     0.0000 |e|
redata: Max. number of SCF Iter          =      500
redata: SCF convergence failure will abort job
redata: Performing Pulay mixing using    =    10 iterations
redata: Mix DM in first SCF step ?       =     F
redata: Write Pulay info on disk?        =     F
redata: Discard 1st Pulay DM after  kick =     F
redata: New DM Mixing Weight             =     0.0500
redata: New DM Occupancy tolerance       = 0.000000000001
redata: No kicks to SCF
redata: DM Mixing Weight for Kicks       =     0.5000
redata: DM Tolerance for SCF             =     0.000100
redata: Require Energy convergence for SCF =     F
redata: DM Energy tolerance for SCF      =     0.000100 eV
redata: Require Harris convergence for SCF =     F
redata: DM Harris energy tolerance for SCF =     0.000100 eV
redata: Using Saved Data (generic)   =     F
redata: Use continuation files for DM    =     T
redata: Neglect nonoverlap interactions  =     F
redata: Method of Calculation            =     Diagonalization
redata: Divide and Conquer               =     T
redata: Electronic Temperature           =     0.0019  Ry
redata: Fix the spin of the system       =     F
redata: Dynamics option                  =     Verlet MD run
redata: Initial MD time step             =        1
redata:   Final MD time step             =        1
redata: Length of MD time step           =     1.0000  fs
redata: Initial Temperature of MD run    =     0.0000  K
redata: Perform a MD quench              =     F
redata: ***********************************************************************
Total number of electrons:   305.000000
Total ionic charge:   305.000000

* ProcessorY, Blocksize:    2  24

k-point displ. along   1 input, could be:     0.50    0.00
k-point displ. along   2 input, could be:     0.50    0.00
 Kpoints in:          231 . Kpoints trimmed:          231

siesta: k-grid: Number of k-points =   231
siesta: k-grid: Cutoff (effective) =     5.000 Ang
siesta: k-grid: Supercell and displacements
siesta: k-grid:   21   0   0      0.500
siesta: k-grid:    0  21   0      0.500
siesta: k-grid:    0   0   1      0.000
Naive supercell factors:     2    2    2

superc: Internal auxiliary supercell:     2 x     2 x     2  =       8
superc: Number of atoms, orbitals, and projectors:    576   7488   9216

* Maximum dynamic memory allocated =     4 MB

siesta:                 ==============================
                            Begin MD step =      1
                        ==============================

superc: Internal auxiliary supercell:     2 x     2 x     2  =       8
superc: Number of atoms, orbitals, and projectors:    576   7488   9216

outcell: Unit cell vectors (Ang):
       12.804619    7.392750    0.000000
        0.000000   14.785500    0.000000
        0.000000    0.000000   10.000000

outcell: Cell vector modules (Ang)   :   14.785500   14.785500   10.000000
outcell: Cell angles (23,13,12) (deg):     90.0000     90.0000     60.0000
outcell: Cell volume (Ang**3)        :   1893.2269
New_DM. Step:     1
Initializing Density Matrix...

InitMesh: MESH =   120 x   120 x    90 =     1296000
InitMesh: Mesh cutoff (required, used) =   200.000   223.865 Ry

* Maximum dynamic memory allocated =   188 MB

stepf: Fermi-Dirac step function

siesta: Program's energy decomposition (eV):
siesta: Ebs     =     -6207.433522
siesta: Eions   =     21135.707422
siesta: Ena     =      4893.736321
siesta: Ekin    =      7804.862351
siesta: Enl     =       133.582517
siesta: DEna    =        -0.000015
siesta: DUscf   =         0.000000
siesta: DUext   =         0.000000
siesta: Exc     =     -4596.552195
siesta: eta*DQ  =         0.000000
siesta: Emadel  =         0.000000
siesta: Emeta   =         0.000000
siesta: Emolmec =         0.000000
siesta: Ekinion =         0.000000
siesta: Eharris =    -12531.907866
siesta: Etot    =    -12900.078443
siesta: FreeEng =    -12900.078443

siesta: iscf   Eharris(eV)      E_KS(eV)   FreeEng(eV)   dDmax  Ef(eV)
siesta:    1   -12531.9079   -12900.0784   -12900.0784  8.1197 -6.8113
timer: Routine,Calls,Time,% = IterSCF        1    4178.143  99.71
elaps: Routine,Calls,Wall,% = IterSCF        1     522.951  99.71
siesta:    2   -16370.0797   -11934.7645   -11934.8394  9.8271 -4.7487
siesta:    3   -12502.3883   -12636.2581   -12636.3029  1.8766 -4.0548
siesta:    4   -12433.3919   -12560.8067   -12560.8424  1.1915 -3.9987
siesta:    5   -12399.4738   -12502.7246   -12502.7892  1.0044 -3.4408
siesta:    6   -12387.4403   -12477.3001   -12477.3747  0.9929 -3.4485
siesta:    7   -12378.6588   -12459.9878   -12460.0517  0.7488 -3.4888
siesta:    8   -12376.2803   -12447.9492   -12448.0228  0.6395 -3.5822
siesta:    9   -12374.8135   -12438.2485   -12438.3180  0.5481 -3.5972
siesta:   10   -12374.5148   -12427.3570   -12427.4221  0.5193 -3.5480
siesta:   11   -12373.8091   -12407.0207   -12407.0960  0.3360 -3.6690
siesta:   12   -12374.5081   -12379.1250   -12379.1930  0.5227 -3.5414
siesta:   13   -12374.1528   -12377.2049   -12377.2869  0.3559 -3.5619
siesta:   14   -12373.9882   -12375.8017   -12375.8755  0.4379 -3.5466
siesta:   15   -12373.4646   -12377.1113   -12377.1993  0.1939 -3.5652
siesta:   16   -12373.3080   -12374.6951   -12374.7742  0.1821 -3.5767
siesta:   17   -12373.1006   -12373.4195   -12373.4948  0.1739 -3.5499
siesta:   18   -12373.0721   -12372.4757   -12372.5610  0.1198 -3.5513
siesta:   19   -12373.0376   -12371.0537   -12371.1263  0.1235 -3.5563
siesta:   20   -12373.0385   -12370.9439   -12371.0089  0.1015 -3.5774
siesta:   21   -12372.9873   -12367.4621   -12367.5141  0.1096 -3.5625
siesta:   22   -12372.9954   -12369.7369   -12369.8039  0.1076 -3.5776
siesta:   23   -12372.9477   -12368.9126   -12368.9689  0.0963 -3.5708
siesta:   24   -12372.9083   -12371.3766   -12371.4425  0.0451 -3.5711
siesta:   25   -12372.9104   -12371.6405   -12371.7207  0.0410 -3.5752
siesta:   26   -12372.9087   -12371.3123   -12371.3854  0.0358 -3.5761
siesta:   27   -12372.9099   -12371.5548   -12371.6308  0.0280 -3.5755
siesta:   28   -12372.9092   -12372.4480   -12372.5198  0.0183 -3.5723
siesta:   29   -12372.9081   -12372.9409   -12373.0117  0.0139 -3.5706
siesta:   30   -12372.9081   -12373.1888   -12373.2604  0.0077 -3.5710
siesta:   31   -12372.9066   -12373.3417   -12373.4133  0.0066 -3.5713
siesta:   32   -12372.9082   -12373.0552   -12373.1278  0.0105 -3.5716
siesta:   33   -12372.9068   -12372.9716   -12373.0424  0.0018 -3.5707
siesta:   34   -12372.9067   -12372.9396   -12373.0115  0.0016 -3.5707
siesta:   35   -12372.9069   -12372.9297   -12373.0018  0.0009 -3.5710
siesta:   36   -12372.9069   -12372.9383   -12373.0101  0.0008 -3.5709
siesta:   37   -12372.9069   -12372.9392   -12373.0111  0.0007 -3.5711
siesta:   38   -12372.9068   -12372.9367   -12373.0086  0.0004 -3.5711
siesta:   39   -12372.9069   -12372.9350   -12373.0069  0.0003 -3.5711
siesta:   40   -12372.9069   -12372.9383   -12373.0102  0.0003 -3.5712
siesta:   41   -12372.9069   -12372.9323   -12373.0042  0.0002 -3.5712
siesta:   42   -12372.9069   -12372.9291   -12373.0010  0.0002 -3.5712
siesta:   43   -12372.9069   -12372.9190   -12372.9909  0.0001 -3.5711
siesta:   44   -12372.9069   -12372.9160   -12372.9879  0.0001 -3.5711

siesta: E_KS(eV) =           -12372.9129

siesta: E_KS - E_eggbox =    -12372.9129

siesta: Atomic forces (eV/Ang):
----------------------------------------
   Tot   -0.143598    0.025309    0.000000
----------------------------------------
   Max  686.631992
   Res  173.214922    sqrt( Sum f_i^2 / 3N )
----------------------------------------
   Max  686.631992    constrained

Stress-tensor-Voigt (kbar):     -643.95    -3085.33       -0.03       -3.57        0.00        0.00
(Free)E + p*V (eV/cell)   -10904.0759
Target enthalpy (eV/cell)   -12372.9848

siesta: Stress tensor (static) (eV/Ang**3):
        -0.401917   -0.002228    0.000000
        -0.002228   -1.925692    0.000000
         0.000000    0.000000   -0.000019

siesta: Pressure (static):       1243.10349257  kBar

siesta: Stress tensor (total) (eV/Ang**3):
        -0.401917   -0.002228    0.000000
        -0.002228   -1.925692    0.000000
         0.000000    0.000000   -0.000019

siesta: Pressure (total):       1243.10349257  kBar

siesta: Temp_ion =       0.000 K

* Maximum dynamic memory allocated =   205 MB
Computing bands...

siesta: Program's energy decomposition (eV):
siesta: Ebs     =     -4954.232608
siesta: Eions   =     21135.707422
siesta: Ena     =      4893.736321
siesta: Ekin    =     10883.182819
siesta: Enl     =     -1565.310909
siesta: DEna    =      -787.769359
siesta: DUscf   =       108.217732
siesta: DUext   =         0.000000
siesta: Exc     =     -4769.262121
siesta: eta*DQ  =         0.000000
siesta: Emadel  =         0.000000
siesta: Emeta   =         0.000000
siesta: Emolmec =         0.000000
siesta: Ekinion =         0.000000
siesta: Eharris =    -12372.906871
siesta: Etot    =    -12372.912938
siesta: FreeEng =    -12372.984819

siesta: Final energy (eV):
siesta:  Band Struct. =   -4954.232608
siesta:       Kinetic =   10883.182819
siesta:       Hartree =   35147.522976
siesta:    Ext. field =       0.000000
siesta:   Exch.-corr. =   -4769.262121
siesta:  Ion-electron =  -80709.898698
siesta:       Ion-ion =   27075.542086
siesta:       Ekinion =       0.000000
siesta:         Total =  -12372.912938

siesta: Atomic forces (eV/Ang):
siesta:      1  -27.195905 -663.207506    0.000000
siesta:      2   26.624339 -660.056912    0.000000
siesta:      3   32.480608   -8.233511    0.000000
siesta:      4   -0.106318    0.639947    0.000000
siesta:      5   -0.614734   -2.661156    0.000000
siesta:      6  -29.681442   -9.215301    0.000000
siesta:      7   -1.811050    4.351334    0.000000
siesta:      8    2.136848    0.576427    0.000000
siesta:      9    0.852518    0.017219    0.000000
siesta:     10    0.213761    1.138275    0.000000
siesta:     11    0.182150    2.226730    0.000000
siesta:     12   -0.125833    0.417832    0.000000
siesta:     13   -0.884854   -0.536356    0.000000
siesta:     14   -0.687155   -0.796555    0.000000
siesta:     15   -0.731178  125.728978    0.000000
siesta:     16    0.043279  107.312663    0.000000
siesta:     17   -0.994045 -645.976976    0.000000
siesta:     18    0.175712  548.894475    0.000000
siesta:     19   -0.459813 -125.507805    0.000000
siesta:     20   -0.791390  114.232733    0.000000
siesta:     21    0.024229  114.626144    0.000000
siesta:     22   26.566491    6.196513    0.000000
siesta:     23   35.988032 -548.620338    0.000000
siesta:     24    1.688590   -0.526754    0.000000
siesta:     25   -3.067266    1.531914    0.000000
siesta:     26    0.955503    1.902201    0.000000
siesta:     27   -0.552121    0.000793    0.000000
siesta:     28  -26.062634    5.640504    0.000000
siesta:     29  -37.607512 -550.349415    0.000000
siesta:     30    3.857900  544.733313    0.000000
siesta:     31   -4.480848 -124.299265    0.000000
siesta:     32   25.292601  549.532627    0.000000
siesta:     33   -1.542614   -0.396086    0.000000
siesta:     34    0.732348   -0.564150    0.000000
siesta:     35   -0.796205   -0.508752    0.000000
siesta:     36    0.614553   -2.332436    0.000000
siesta:     37    0.076367    6.887398    0.000000
siesta:     38   -0.647115   -5.842140    0.000000
siesta:     39   -5.009342  546.096826    0.000000
siesta:     40    2.249090 -124.120844    0.000000
siesta:     41    3.136909  547.661523    0.000000
siesta:     42   -0.612062 -124.621045    0.000000
siesta:     43   -6.694143  681.974974    0.000000
siesta:     44   24.616793   -3.697786    0.000000
siesta:     45   -1.825785    3.516416    0.000000
siesta:     46   -0.600739    1.408641    0.000000
siesta:     47  -20.862201  548.952649    0.000000
siesta:     48    7.471355  686.226185    0.000000
siesta:     49  -24.391883   -4.829263    0.000000
siesta:     50    0.911024  686.631992    0.000000
siesta:     51   -0.283874   -0.665965    0.000000
siesta:     52    1.795579    0.107882    0.000000
siesta:     53    0.959874   -0.110516    0.000000
siesta:     54   -1.113600    1.880150    0.000000
siesta:     55   -2.286166   -0.107864    0.000000
siesta:     56   -1.126513   -0.143458    0.000000
siesta:     57   -0.247142   -3.765555    0.000000
siesta:     58    0.665935   -0.909816    0.000000
siesta:     59    0.747853    4.599020    0.000000
siesta:     60   -0.055980   -6.051217    0.000000
siesta:     61    0.565623    1.154537    0.000000
siesta:     62    0.908341    1.893944    0.000000
siesta:     63   -1.491302   -2.771009    0.000000
siesta:     64    0.557873    0.111957    0.000000
siesta:     65   -0.468898 -564.663903    0.000000
siesta:     66    1.561294   -2.427217    0.000000
siesta:     67   24.409400    4.939155    0.000000
siesta:     68   24.178205 -563.690352    0.000000
siesta:     69  -25.057913    4.880313    0.000000
siesta:     70  -21.617310 -564.602612    0.000000
siesta:     71    1.635933   -0.255886    0.000000
siesta:     72   -2.435618 -541.533155    0.000000
siesta: ----------------------------------------
siesta:    Tot   -0.143598    0.025309    0.000000

siesta: Stress tensor (static) (eV/Ang**3):
siesta:    -0.401917   -0.002228    0.000000
siesta:    -0.002228   -1.925692    0.000000
siesta:     0.000000    0.000000   -0.000019

siesta: Cell volume =       1893.226884 Ang**3

siesta: Pressure (static):
siesta:                Solid            Molecule  Units
siesta:           0.00845028          0.13667609  Ry/Bohr**3
siesta:           0.77587579         12.54913336  eV/Ang**3
siesta:        1243.10349257      20106.14556670  kBar
(Free)E+ p_basis*V_orbitals  =      -12344.677582
(Free)Eharris+ p_basis*V_orbitals  =      -12344.668438

siesta: Electric dipole (a.u.)  =    0.000000    0.000000    0.000000
siesta: Electric dipole (Debye) =    0.000000    0.000000    0.000000

* Maximum dynamic memory allocated : Node    0 =   205 MB
* Maximum dynamic memory allocated : Node    1 =    73 MB
* Maximum dynamic memory allocated : Node    2 =    75 MB
* Maximum dynamic memory allocated : Node    3 =   195 MB
* Maximum dynamic memory allocated : Node    4 =   186 MB
* Maximum dynamic memory allocated : Node    5 =    71 MB
* Maximum dynamic memory allocated : Node    6 =    72 MB
* Maximum dynamic memory allocated : Node    7 =   171 MB

* Maximum memory occured during matrixMtoO                    

timer: CPU execution times:
timer:  Routine       Calls   Time/call    Tot.time        %
timer:  siesta            1  181047.233  181047.233   100.00
timer:  Setup             1       3.837       3.837     0.00
timer:  bands             3     268.597     805.792     0.45
timer:  writewave         1       0.040       0.040     0.00
timer:  KSV_init          1       0.006       0.006     0.00
timer:  IterMD            1  180231.928  180231.928    99.55
timer:  hsparse           1       0.233       0.233     0.00
timer:  overlap           1       7.698       7.698     0.00
timer:  IterSCF          44    4092.274  180060.050    99.45
timer:  kinefsm           2       3.952       7.904     0.00
timer:  nlefsm            2      18.560      37.119     0.02
timer:  DHSCF            45      89.441    4024.836     2.22
timer:  DHSCF1            1       0.760       0.760     0.00
timer:  DHSCF2            1      33.822      33.822     0.02
timer:  REORD           362       0.010       3.676     0.00
timer:  POISON           46       2.240     103.058     0.06
timer:  DHSCF3           45      87.941    3957.337     2.19
timer:  rhoofd           45      17.181     773.143     0.43
timer:  cellXC           45       3.518     158.322     0.09
timer:  vmat             45      42.029    1891.324     1.04
timer:  MolMec            2       0.000       0.000     0.00
timer:  diagon           44    4001.229  176054.081    97.24
timer:  c-eigval      10285       6.654   68432.344    37.80
timer:  c-buildHS     10285       0.112    1155.758     0.64
timer:  cdiag         20449       6.849  140046.841    77.35
timer:  cdiag1        20449       0.423    8641.895     4.77
timer:  cdiag2        20449       1.901   38874.116    21.47
timer:  cdiag3        20449       3.940   80570.532    44.50
timer:  cdiag4        20449       0.204    4163.743     2.30
timer:  c-eigvec      10164       7.213   73314.204    40.49
timer:  c-buildD      10164       3.449   35054.962    19.36
timer:  DHSCF4            1      30.527      30.527     0.02
timer:  dfscf             1      28.734      28.734     0.02
timer:  overfsm           1       0.402       0.402     0.00
timer:  optical           1       4.980       4.980     0.00
  

elaps: ELAPSED times:
elaps:  Routine       Calls   Time/call    Tot.time        %
elaps:  siesta            1   22655.810   22655.810   100.00
elaps:  Setup             1       0.495       0.495     0.00
elaps:  bands             3      33.627     100.881     0.45
elaps:  writewave         1       0.005       0.005     0.00
elaps:  KSV_init          1       0.001       0.001     0.00
elaps:  IterMD            1   22553.775   22553.775    99.55
elaps:  hsparse           1       0.029       0.029     0.00
elaps:  overlap           1       0.966       0.966     0.00
elaps:  IterSCF          44     512.100   22532.397    99.46
elaps:  kinefsm           2       0.495       0.991     0.00
elaps:  nlefsm            2       2.394       4.788     0.02
elaps:  DHSCF            45      11.283     507.720     2.24
elaps:  DHSCF1            1       0.098       0.098     0.00
elaps:  DHSCF2            1       4.226       4.226     0.02
elaps:  REORD           362       0.001       0.488     0.00
elaps:  POISON           46       0.279      12.837     0.06
elaps:  DHSCF3           45      11.001     495.053     2.19
elaps:  rhoofd           45       4.867     219.037     0.97
elaps:  cellXC           45       0.440      19.782     0.09
elaps:  vmat             45       5.257     236.580     1.04
elaps:  MolMec            2       0.000       0.000     0.00
elaps:  diagon           44     500.695   22030.559    97.24
elaps:  c-eigval      10285       0.833    8562.295    37.79
elaps:  c-buildHS     10285       0.015     157.067     0.69
elaps:  cdiag         20449       0.859   17564.419    77.53
elaps:  cdiag1        20449       0.053    1084.264     4.79
elaps:  cdiag2        20449       0.238    4864.128    21.47
elaps:  cdiag3        20449       0.494   10094.631    44.56
elaps:  cdiag4        20449       0.025     520.941     2.30
elaps:  c-eigvec      10164       0.910    9247.792    40.82
elaps:  c-buildD      10164       0.424    4313.741    19.04
elaps:  DHSCF4            1       8.019       8.019     0.04
elaps:  dfscf             1       7.631       7.631     0.03
elaps:  overfsm           1       0.051       0.051     0.00
elaps:  optical           1       0.001       0.001     0.00
  
>> End of run:  29-APR-2016  23:18:37
