Siesta Version:                                        siesta-3.2-pl-3
Architecture  : x86_64-unknown-linux-gnu--unknown
Compiler flags: mpiifort -g -O2 -fPIC -xSSE4.1 -fp-model source -shared-intel 
PARALLEL version

* Running on    8 nodes in parallel
>> Start of run:   7-MAY-2016   3:33:04

                           ***********************       
                           *  WELCOME TO SIESTA  *       
                           ***********************       

reinit: Reading from standard input
************************** Dump of input data file ****************************
#(1) General system descriptors
SystemName            GRP_doping    # Descriptive name of the system
SystemLabel           GRP_doping    # Short name for naming files
%include STRUCT.fdf
%include KPT.fdf
%include BASIS.fdf
#%include TS.fdf # for transiesta calculation
#(4) DFT, Grid, SCF
XC.functional         GGA           # LDA or GGA (default = LDA)
XC.authors            PBE           # CA (Ceperley-Aldr) = PZ
                                    #    (Perdew-Zunger) - LDA - Default
                                    # PW92 (Perdew-Wang-92) - LDA
                                    # PBE (Perdew-Burke-Ernzerhof) - GGA
MeshCutoff            200.000000    Ry      # Default: 50.0 Ry ~ 0.444 Bohr
                                    #         100.0 Ry ~ 0.314 Bohr
MaxSCFIterations      500           # Default: 50
DM.MixingWeight       0.05          # Default: 0.25
DM.NumberPulay        10            # Default: 0
DM.PulayOnFile        F             # SystemLabel.P1, SystemLabel.P2
DM.Tolerance          1.d-4         # Default: 1.d-4
DM.UseSaveDM          .true.        # because of the bug
SCFMustConverge       .true.
NeglNonOverlapInt     F             # Default: F
#(5) Eigenvalue problem: order-N or diagonalization
SolutionMethod        Diagon        # or Transiesta
ElectronicTemperature 300.0 K       # Default: 300.0 K
#(6) Molecular dynamics and relaxations
#MD.TypeOfRun          CG            # Type of dynamics:
#MD.VariableCell       F
#MD.NumCGsteps         0           # 0 for single-point / 100 for gopt
#MD.MaxCGDispl         0.2 Bohr      # Default: 0.2 Bohr
#MD.MaxForceTol        0.02 eV/Ang   # Default: 0.04 eV/Ang
#MD.MaxStressTol       1.0 GPa       # Default: 1.0 GPa
# Geometry Constraints
#%block GeometryConstraints
#	position from 1 to 44
#%endblock GeometryConstraints
BandLinesScale   pi/a
%block BandLines
 1   0.00000000  0.00000000  0.00000000
50   0.00000000  0.07809418  0.00000000
50   0.04509075  0.07809242  0.00000000
20   0.00000000  0.00000000  0.00000000
%endblock BandLines
************************** End of input data file *****************************

reinit: -----------------------------------------------------------------------
reinit: System Name: GRP_doping
reinit: -----------------------------------------------------------------------
reinit: System Label: GRP_doping                                                  
reinit: -----------------------------------------------------------------------

initatom: Reading input for the pseudopotentials and atomic orbitals ----------
 Species number:            1  Label: N Atomic number:           7
 Species number:            2  Label: C Atomic number:           6
Ground state valence configuration:   2s02  2p03
Reading pseudopotential information in formatted form from N.psf

Valence configuration for pseudopotential generation:
2s( 2.00) rc: 1.48
2p( 3.00) rc: 1.48
3d( 0.00) rc: 1.48
4f( 0.00) rc: 1.48
Ground state valence configuration:   2s02  2p02
Reading pseudopotential information in formatted form from C.psf

Valence configuration for pseudopotential generation:
2s( 2.00) rc: 1.54
2p( 2.00) rc: 1.54
3d( 0.00) rc: 1.54
4f( 0.00) rc: 1.54
For N, standard SIESTA heuristics set lmxkb to 3
 (one more than the basis l, including polarization orbitals).
Use PS.lmax or PS.KBprojectors blocks to override.
For C, standard SIESTA heuristics set lmxkb to 3
 (one more than the basis l, including polarization orbitals).
Use PS.lmax or PS.KBprojectors blocks to override.

<basis_specs>
===============================================================================
N                    Z=   7    Mass=  14.010        Charge= 0.17977+309
Lmxo=1 Lmxkb= 3    BasisType=split      Semic=F
L=0  Nsemic=0  Cnfigmx=2
          n=1  nzeta=2  polorb=0
            splnorm:   0.15000    
               vcte:    0.0000    
               rinn:    0.0000    
                rcs:    0.0000      0.0000    
            lambdas:    1.0000      1.0000    
L=1  Nsemic=0  Cnfigmx=2
          n=1  nzeta=2  polorb=1
            splnorm:   0.15000    
               vcte:    0.0000    
               rinn:    0.0000    
                rcs:    0.0000      0.0000    
            lambdas:    1.0000      1.0000    
-------------------------------------------------------------------------------
L=0  Nkbl=1  erefs: 0.17977+309
L=1  Nkbl=1  erefs: 0.17977+309
L=2  Nkbl=1  erefs: 0.17977+309
L=3  Nkbl=1  erefs: 0.17977+309
===============================================================================
</basis_specs>

atom: Called for N                     (Z =   7)

read_vps: Pseudopotential generation method:
read_vps: ATM3      Troullier-Martins                       
Total valence charge:    5.00000

read_vps: Pseudopotential includes a core correction:
read_vps: Pseudo-core for xc-correction

xc_check: Exchange-correlation functional:
xc_check: GGA Perdew, Burke & Ernzerhof 1996
V l=0 = -2*Zval/r beyond r=  1.4606
V l=1 = -2*Zval/r beyond r=  1.4606
V l=2 = -2*Zval/r beyond r=  1.4606
V l=3 = -2*Zval/r beyond r=  1.4606
All V_l potentials equal beyond r=  1.4606
This should be close to max(r_c) in ps generation
All pots = -2*Zval/r beyond r=  1.4606

VLOCAL1: 99.0% of the norm of Vloc inside     20.347 Ry
VLOCAL1: 99.9% of the norm of Vloc inside     46.372 Ry
atom: Maximum radius for 4*pi*r*r*local-pseudopot. charge    1.76189
atom: Maximum radius for r*vlocal+2*Zval:    1.53550
GHOST: No ghost state for L =  0
GHOST: No ghost state for L =  1
GHOST: No ghost state for L =  2
GHOST: No ghost state for L =  3

KBgen: Kleinman-Bylander projectors: 
   l= 0   rc=  1.634559   el= -1.363963   Ekb=  5.296955   kbcos=  0.335621
   l= 1   rc=  1.614250   el= -0.521451   Ekb= -5.259161   kbcos= -0.433408
   l= 2   rc=  1.718383   el=  0.001991   Ekb= -1.271464   kbcos= -0.007566
   l= 3   rc=  1.761893   el=  0.003093   Ekb= -0.494769   kbcos= -0.001015

KBgen: Total number of  Kleinman-Bylander projectors:   16
atom: -------------------------------------------------------------------------

atom: SANKEY-TYPE ORBITALS:
atom: Selected multiple-zeta basis: split     

SPLIT: Orbitals with angular momentum L= 0

SPLIT: Basis orbitals for state 2s

SPLIT: PAO cut-off radius determined from an
SPLIT: energy shift=  0.007350 Ry

   izeta = 1
                 lambda =    1.000000
                     rc =    4.071465
                 energy =   -1.356470
                kinetic =    1.176977
    potential(screened) =   -2.533447
       potential(ionic) =   -8.057990

   izeta = 2
                 rmatch =    2.905100
              splitnorm =    0.150000
                 energy =   -1.158343
                kinetic =    1.813009
    potential(screened) =   -2.971352
       potential(ionic) =   -8.901931

SPLIT: Orbitals with angular momentum L= 1

SPLIT: Basis orbitals for state 2p

SPLIT: PAO cut-off radius determined from an
SPLIT: energy shift=  0.007350 Ry

   izeta = 1
                 lambda =    1.000000
                     rc =    4.972977
                 energy =   -0.513884
                kinetic =    3.441732
    potential(screened) =   -3.955616
       potential(ionic) =   -9.287901

   izeta = 2
                 rmatch =    3.054066
              splitnorm =    0.150000
                 energy =   -0.318226
                kinetic =    5.125348
    potential(screened) =   -5.443573
       potential(ionic) =  -11.380999

POLgen: Perturbative polarization orbital with L=  2

POLgen: Polarization orbital for state 2p

   izeta = 1
                     rc =    4.972977
                 energy =    1.607437
                kinetic =    3.268125
    potential(screened) =   -1.660688
       potential(ionic) =   -5.973652
atom: Total number of Sankey-type orbitals: 13

atm_pop: Valence configuration (for local Pseudopot. screening):
 2s( 2.00)                                                            
 2p( 3.00)                                                            
Vna: chval, zval:    5.00000   5.00000

Vna:  Cut-off radius for the neutral-atom potential:   4.972977
comcore: Pseudo-core radius Rcore=  1.554824

atom: _________________________________________________________________________

<basis_specs>
===============================================================================
C                    Z=   6    Mass=  12.010        Charge= 0.17977+309
Lmxo=1 Lmxkb= 3    BasisType=split      Semic=F
L=0  Nsemic=0  Cnfigmx=2
          n=1  nzeta=2  polorb=0
            splnorm:   0.15000    
               vcte:    0.0000    
               rinn:    0.0000    
                rcs:    0.0000      0.0000    
            lambdas:    1.0000      1.0000    
L=1  Nsemic=0  Cnfigmx=2
          n=1  nzeta=2  polorb=1
            splnorm:   0.15000    
               vcte:    0.0000    
               rinn:    0.0000    
                rcs:    0.0000      0.0000    
            lambdas:    1.0000      1.0000    
-------------------------------------------------------------------------------
L=0  Nkbl=1  erefs: 0.17977+309
L=1  Nkbl=1  erefs: 0.17977+309
L=2  Nkbl=1  erefs: 0.17977+309
L=3  Nkbl=1  erefs: 0.17977+309
===============================================================================
</basis_specs>

atom: Called for C                     (Z =   6)

read_vps: Pseudopotential generation method:
read_vps: ATM3      Troullier-Martins                       
Total valence charge:    4.00000

read_vps: Pseudopotential includes a core correction:
read_vps: Pseudo-core for xc-correction

xc_check: Exchange-correlation functional:
xc_check: GGA Perdew, Burke & Ernzerhof 1996
V l=0 = -2*Zval/r beyond r=  1.5227
V l=1 = -2*Zval/r beyond r=  1.5227
V l=2 = -2*Zval/r beyond r=  1.5227
V l=3 = -2*Zval/r beyond r=  1.5038
All V_l potentials equal beyond r=  1.5227
This should be close to max(r_c) in ps generation
All pots = -2*Zval/r beyond r=  1.5227

VLOCAL1: 99.0% of the norm of Vloc inside     18.722 Ry
VLOCAL1: 99.9% of the norm of Vloc inside     42.668 Ry
atom: Maximum radius for 4*pi*r*r*local-pseudopot. charge    1.83678
atom: Maximum radius for r*vlocal+2*Zval:    1.58088
GHOST: No ghost state for L =  0
GHOST: No ghost state for L =  1
GHOST: No ghost state for L =  2
GHOST: No ghost state for L =  3

KBgen: Kleinman-Bylander projectors: 
   l= 0   rc=  1.704034   el= -1.009801   Ekb=  5.335044   kbcos=  0.316824
   l= 1   rc=  1.704034   el= -0.388707   Ekb= -3.785862   kbcos= -0.366464
   l= 2   rc=  1.791422   el=  0.001971   Ekb= -0.970471   kbcos= -0.009212
   l= 3   rc=  1.859892   el=  0.003065   Ekb= -0.399525   kbcos= -0.001223

KBgen: Total number of  Kleinman-Bylander projectors:   16
atom: -------------------------------------------------------------------------

atom: SANKEY-TYPE ORBITALS:
atom: Selected multiple-zeta basis: split     

SPLIT: Orbitals with angular momentum L= 0

SPLIT: Basis orbitals for state 2s

SPLIT: PAO cut-off radius determined from an
SPLIT: energy shift=  0.007350 Ry

   izeta = 1
                 lambda =    1.000000
                     rc =    4.632753
                 energy =   -1.002270
                kinetic =    0.855760
    potential(screened) =   -1.858031
       potential(ionic) =   -5.417575

   izeta = 2
                 rmatch =    3.431921
              splitnorm =    0.150000
                 energy =   -0.867111
                kinetic =    1.300804
    potential(screened) =   -2.167915
       potential(ionic) =   -5.962684

SPLIT: Orbitals with angular momentum L= 1

SPLIT: Basis orbitals for state 2p

SPLIT: PAO cut-off radius determined from an
SPLIT: energy shift=  0.007350 Ry

   izeta = 1
                 lambda =    1.000000
                     rc =    5.658549
                 energy =   -0.381140
                kinetic =    2.399701
    potential(screened) =   -2.780841
       potential(ionic) =   -6.206085

   izeta = 2
                 rmatch =    3.653288
              splitnorm =    0.150000
                 energy =   -0.249149
                kinetic =    3.542762
    potential(screened) =   -3.791911
       potential(ionic) =   -7.581078

POLgen: Perturbative polarization orbital with L=  2

POLgen: Polarization orbital for state 2p

   izeta = 1
                     rc =    5.658549
                 energy =    1.109913
                kinetic =    2.304789
    potential(screened) =   -1.194876
       potential(ionic) =   -4.013592
atom: Total number of Sankey-type orbitals: 13

atm_pop: Valence configuration (for local Pseudopot. screening):
 2s( 2.00)                                                            
 2p( 2.00)                                                            
Vna: chval, zval:    4.00000   4.00000

Vna:  Cut-off radius for the neutral-atom potential:   5.658549
comcore: Pseudo-core radius Rcore=  1.791422

atom: _________________________________________________________________________

prinput: Basis input ----------------------------------------------------------

PAO.BasisType split     

%block ChemicalSpeciesLabel
    1    7 N                       # Species index, atomic number, species label
    2    6 C                       # Species index, atomic number, species label
%endblock ChemicalSpeciesLabel

%block PAO.Basis                 # Define Basis set
N                     2                    # Species label, number of l-shells
 n=2   0   2                         # n, l, Nzeta 
   4.071      2.905   
   1.000      1.000   
 n=2   1   2 P   1                   # n, l, Nzeta, Polarization, NzetaPol
   4.973      3.054   
   1.000      1.000   
C                     2                    # Species label, number of l-shells
 n=2   0   2                         # n, l, Nzeta 
   4.633      3.432   
   1.000      1.000   
 n=2   1   2 P   1                   # n, l, Nzeta, Polarization, NzetaPol
   5.659      3.653   
   1.000      1.000   
%endblock PAO.Basis

prinput: ----------------------------------------------------------------------

coor:   Atomic-coordinates input format  =     Fractional

siesta: Atomic coordinates (Bohr) and species
siesta:     -2.35420  38.89134   0.00000  1        1
siesta:      4.63094  34.85847   0.00000  1        2
siesta:     -4.68258  34.85847   0.00000  1        3
siesta:     -7.01096  14.69411   0.00000  1        4
siesta:     -4.68258  18.72698   0.00000  1        5
siesta:     -2.35420  22.75985   0.00000  1        6
siesta:    -11.66772  22.75985   0.00000  1        7
siesta:     -9.33934  26.79272   0.00000  1        8
siesta:     -0.02582  26.79272   0.00000  1        9
siesta:      2.30256  30.82560   0.00000  1       10
siesta:     -7.01096  30.82560   0.00000  1       11
siesta:     -0.02582  42.92421   0.00000  1       12
siesta:     -0.02582   2.59549   0.00000  2       13
siesta:     -0.02582   5.28395   0.00000  2       14
siesta:     -2.35420  41.57980   0.00000  2       15
siesta:      2.30256  38.89134   0.00000  2       16
siesta:      2.30256  41.57980   0.00000  2       17
siesta:      4.63094  37.54693   0.00000  2       18
siesta:      6.95932  30.82560   0.00000  2       19
siesta:      6.95932  33.51406   0.00000  2       20
siesta:      9.28770  26.79272   0.00000  2       21
siesta:      9.28770  29.48119   0.00000  2       22
siesta:     -4.68258  37.54693   0.00000  2       23
siesta:      2.30256   6.62836   0.00000  2       24
siesta:      2.30256   9.31683   0.00000  2       25
siesta:      4.63094  10.66124   0.00000  2       26
siesta:      4.63094  13.34970   0.00000  2       27
siesta:      6.95932  14.69411   0.00000  2       28
siesta:      6.95932  17.38257   0.00000  2       29
siesta:      9.28770  18.72698   0.00000  2       30
siesta:      9.28770  21.41544   0.00000  2       31
siesta:     11.61608  22.75985   0.00000  2       32
siesta:     11.61608  25.44831   0.00000  2       33
siesta:     -2.35420   6.62836   0.00000  2       34
siesta:     -2.35420   9.31683   0.00000  2       35
siesta:     -0.02582  10.66124   0.00000  2       36
siesta:     -0.02582  13.34970   0.00000  2       37
siesta:      2.30256  14.69411   0.00000  2       38
siesta:      2.30256  17.38257   0.00000  2       39
siesta:      4.63094  18.72698   0.00000  2       40
siesta:      4.63094  21.41544   0.00000  2       41
siesta:      6.95932  22.75985   0.00000  2       42
siesta:      6.95932  25.44831   0.00000  2       43
siesta:     -4.68258  10.66124   0.00000  2       44
siesta:     -4.68258  13.34970   0.00000  2       45
siesta:     -2.35420  14.69411   0.00000  2       46
siesta:     -2.35420  17.38257   0.00000  2       47
siesta:     -0.02582  18.72698   0.00000  2       48
siesta:     -0.02582  21.41544   0.00000  2       49
siesta:      2.30256  22.75985   0.00000  2       50
siesta:      2.30256  25.44831   0.00000  2       51
siesta:     -7.01096  17.38257   0.00000  2       52
siesta:     -4.68258  21.41544   0.00000  2       53
siesta:     -2.35420  25.44831   0.00000  2       54
siesta:     -9.33934  18.72698   0.00000  2       55
siesta:     -9.33934  21.41544   0.00000  2       56
siesta:     -7.01096  22.75985   0.00000  2       57
siesta:     -7.01096  25.44831   0.00000  2       58
siesta:    -11.66772  25.44831   0.00000  2       59
siesta:     -9.33934  29.48119   0.00000  2       60
siesta:      4.63094  26.79272   0.00000  2       61
siesta:      4.63094  29.48119   0.00000  2       62
siesta:     -0.02582  29.48119   0.00000  2       63
siesta:     -4.68258  26.79272   0.00000  2       64
siesta:     -4.68258  29.48119   0.00000  2       65
siesta:      2.30256  33.51406   0.00000  2       66
siesta:     -2.35420  30.82560   0.00000  2       67
siesta:     -2.35420  33.51406   0.00000  2       68
siesta:     -7.01096  33.51406   0.00000  2       69
siesta:     -0.02582  34.85847   0.00000  2       70
siesta:     -0.02582  37.54693   0.00000  2       71
siesta:     -0.02582  45.61267   0.00000  2       72

siesta: System type = slab      

initatomlists: Number of atoms, orbitals, and projectors:     72   936  1152

siesta: ******************** Simulation parameters ****************************
siesta:
siesta: The following are some of the parameters of the simulation.
siesta: A complete list of the parameters used, including default values,
siesta: can be found in file out.fdf
siesta:
redata: Non-Collinear-spin run           =     F
redata: SpinPolarized (Up/Down) run      =     F
redata: Number of spin components        =     1
redata: Long output                      =     F
redata: Number of Atomic Species         =        2
redata: Charge density info will appear in .RHO file
redata: Write Mulliken Pop.              =     NO
redata: Mesh Cutoff                      =   200.0000  Ry
redata: Net charge of the system         =     0.0000 |e|
redata: Max. number of SCF Iter          =      500
redata: SCF convergence failure will abort job
redata: Performing Pulay mixing using    =    10 iterations
redata: Mix DM in first SCF step ?       =     F
redata: Write Pulay info on disk?        =     F
redata: Discard 1st Pulay DM after  kick =     F
redata: New DM Mixing Weight             =     0.0500
redata: New DM Occupancy tolerance       = 0.000000000001
redata: No kicks to SCF
redata: DM Mixing Weight for Kicks       =     0.5000
redata: DM Tolerance for SCF             =     0.000100
redata: Require Energy convergence for SCF =     F
redata: DM Energy tolerance for SCF      =     0.000100 eV
redata: Require Harris convergence for SCF =     F
redata: DM Harris energy tolerance for SCF =     0.000100 eV
redata: Using Saved Data (generic)   =     F
redata: Use continuation files for DM    =     T
redata: Neglect nonoverlap interactions  =     F
redata: Method of Calculation            =     Diagonalization
redata: Divide and Conquer               =     T
redata: Electronic Temperature           =     0.0019  Ry
redata: Fix the spin of the system       =     F
redata: Dynamics option                  =     Verlet MD run
redata: Initial MD time step             =        1
redata:   Final MD time step             =        1
redata: Length of MD time step           =     1.0000  fs
redata: Initial Temperature of MD run    =     0.0000  K
redata: Perform a MD quench              =     F
redata: ***********************************************************************
Total number of electrons:   300.000000
Total ionic charge:   300.000000

* ProcessorY, Blocksize:    2  24

k-point displ. along   1 input, could be:     0.50    0.00
k-point displ. along   2 input, could be:     0.50    0.00
 Kpoints in:          231 . Kpoints trimmed:          231

siesta: k-grid: Number of k-points =   231
siesta: k-grid: Cutoff (effective) =     5.000 Ang
siesta: k-grid: Supercell and displacements
siesta: k-grid:   21   0   0      0.500
siesta: k-grid:    0  21   0      0.500
siesta: k-grid:    0   0   1      0.000
Naive supercell factors:     2    2    2

superc: Internal auxiliary supercell:     2 x     2 x     2  =       8
superc: Number of atoms, orbitals, and projectors:    576   7488   9216

* Maximum dynamic memory allocated =     4 MB

siesta:                 ==============================
                            Begin MD step =      1
                        ==============================

superc: Internal auxiliary supercell:     2 x     2 x     2  =       8
superc: Number of atoms, orbitals, and projectors:    576   7488   9216

outcell: Unit cell vectors (Ang):
       12.804619    7.392750    0.000000
        0.000000   14.785500    0.000000
        0.000000    0.000000   10.000000

outcell: Cell vector modules (Ang)   :   14.785500   14.785500   10.000000
outcell: Cell angles (23,13,12) (deg):     90.0000     90.0000     60.0000
outcell: Cell volume (Ang**3)        :   1893.2269
New_DM. Step:     1
Initializing Density Matrix...

InitMesh: MESH =   120 x   120 x    90 =     1296000
InitMesh: Mesh cutoff (required, used) =   200.000   223.865 Ry

* Maximum dynamic memory allocated =   189 MB

stepf: Fermi-Dirac step function

siesta: Program's energy decomposition (eV):
siesta: Ebs     =     -6067.985643
siesta: Eions   =     20331.973201
siesta: Ena     =      4826.125426
siesta: Ekin    =      7385.248291
siesta: Enl     =       276.200173
siesta: DEna    =        -0.000015
siesta: DUscf   =         0.000000
siesta: DUext   =         0.000000
siesta: Exc     =     -4465.475292
siesta: eta*DQ  =         0.000000
siesta: Emadel  =         0.000000
siesta: Emeta   =         0.000000
siesta: Emolmec =         0.000000
siesta: Ekinion =         0.000000
siesta: Eharris =    -11957.868406
siesta: Etot    =    -12309.874617
siesta: FreeEng =    -12309.874617

siesta: iscf   Eharris(eV)      E_KS(eV)   FreeEng(eV)   dDmax  Ef(eV)
siesta:    1   -11957.8684   -12309.8746   -12309.8746  7.7144 -7.1451
timer: Routine,Calls,Time,% = IterSCF        1    3402.766  99.70
elaps: Routine,Calls,Wall,% = IterSCF        1     426.185  99.70
siesta:    2   -16196.1675   -11319.8523   -11319.8938 10.4999 -3.3917
siesta:    3   -11972.8978   -12035.9539   -12035.9567  1.9066 -3.2309
siesta:    4   -11872.6840   -11985.3304   -11985.3724  1.4033 -3.8911
siesta:    5   -11850.6609   -11933.8994   -11933.9295  0.9355 -3.9180
siesta:    6   -11823.9532   -11898.3914   -11898.4498  0.8399 -4.1394
siesta:    7   -11816.5329   -11881.3628   -11881.3961  0.7260 -4.0900
siesta:    8   -11813.5164   -11871.0548   -11871.0739  0.7259 -4.1293
siesta:    9   -11808.4253   -11852.5714   -11852.6236  0.6196 -4.1576
siesta:   10   -11807.4716   -11842.3876   -11842.4557  0.4918 -4.1725
siesta:   11   -11807.0995   -11831.7653   -11831.8007  0.4446 -4.1096
siesta:   12   -11807.7615   -11811.4658   -11811.5512  0.2680 -4.0934
siesta:   13   -11807.1619   -11804.0764   -11804.1529  0.2725 -4.0747
siesta:   14   -11806.7719   -11808.7881   -11808.8645  0.2198 -4.1092
siesta:   15   -11806.6690   -11808.6556   -11808.7313  0.2853 -4.1284
siesta:   16   -11806.3945   -11809.3999   -11809.4819  0.1780 -4.1322
siesta:   17   -11806.1771   -11807.7812   -11807.8560  0.1530 -4.1325
siesta:   18   -11806.1464   -11809.2103   -11809.2745  0.1239 -4.1446
siesta:   19   -11806.0186   -11809.4290   -11809.4972  0.1435 -4.1648
siesta:   20   -11805.9596   -11808.7978   -11808.8763  0.1187 -4.1721
siesta:   21   -11805.9592   -11808.3458   -11808.4264  0.0551 -4.1671
siesta:   22   -11805.9497   -11807.2349   -11807.3237  0.0511 -4.1639
siesta:   23   -11805.9461   -11807.5829   -11807.6630  0.0388 -4.1620
siesta:   24   -11805.9426   -11807.3315   -11807.4159  0.0284 -4.1596
siesta:   25   -11805.9345   -11806.8707   -11806.9543  0.0207 -4.1582
siesta:   26   -11805.9326   -11806.3499   -11806.4326  0.0164 -4.1557
siesta:   27   -11805.9308   -11806.1140   -11806.1967  0.0089 -4.1528
siesta:   28   -11805.9313   -11806.0447   -11806.1284  0.0089 -4.1536
siesta:   29   -11805.9310   -11805.9881   -11806.0711  0.0065 -4.1539
siesta:   30   -11805.9308   -11805.9662   -11806.0492  0.0049 -4.1542
siesta:   31   -11805.9309   -11805.9034   -11805.9865  0.0027 -4.1543
siesta:   32   -11805.9308   -11805.8942   -11805.9772  0.0021 -4.1541
siesta:   33   -11805.9308   -11805.8897   -11805.9727  0.0014 -4.1543
siesta:   34   -11805.9307   -11805.9130   -11805.9959  0.0012 -4.1543
siesta:   35   -11805.9308   -11805.9199   -11806.0030  0.0007 -4.1545
siesta:   36   -11805.9307   -11805.9122   -11805.9952  0.0005 -4.1545
siesta:   37   -11805.9307   -11805.9180   -11806.0010  0.0004 -4.1545
siesta:   38   -11805.9307   -11805.9241   -11806.0071  0.0004 -4.1545
siesta:   39   -11805.9307   -11805.9257   -11806.0088  0.0002 -4.1545
siesta:   40   -11805.9307   -11805.9288   -11806.0118  0.0001 -4.1544

siesta: E_KS(eV) =           -11805.9285

siesta: E_KS - E_eggbox =    -11805.9285

siesta: Atomic forces (eV/Ang):
----------------------------------------
   Tot   -0.007218   -0.102974    0.000000
----------------------------------------
   Max  573.656609
   Res  161.790557    sqrt( Sum f_i^2 / 3N )
----------------------------------------
   Max  573.656609    constrained

Stress-tensor-Voigt (kbar):     -676.47    -2861.67       -0.06        1.54        0.00        0.00
(Free)E + p*V (eV/cell)   -10412.3760
Target enthalpy (eV/cell)   -11806.0116

siesta: Stress tensor (static) (eV/Ang**3):
        -0.422215    0.000959    0.000000
         0.000960   -1.786095    0.000000
         0.000000    0.000000   -0.000039

siesta: Pressure (static):       1179.40140714  kBar

siesta: Stress tensor (total) (eV/Ang**3):
        -0.422215    0.000959    0.000000
         0.000960   -1.786095    0.000000
         0.000000    0.000000   -0.000039

siesta: Pressure (total):       1179.40140714  kBar

siesta: Temp_ion =       0.000 K

* Maximum dynamic memory allocated =   205 MB
Computing bands...

siesta: Program's energy decomposition (eV):
siesta: Ebs     =     -4828.262124
siesta: Eions   =     20331.973201
siesta: Ena     =      4826.125426
siesta: Ekin    =     10341.662760
siesta: Enl     =     -1352.465751
siesta: DEna    =      -756.792115
siesta: DUscf   =        98.537138
siesta: DUext   =         0.000000
siesta: Exc     =     -4631.022779
siesta: eta*DQ  =         0.000000
siesta: Emadel  =         0.000000
siesta: Emeta   =         0.000000
siesta: Emolmec =         0.000000
siesta: Ekinion =         0.000000
siesta: Eharris =    -11805.930708
siesta: Etot    =    -11805.928522
siesta: FreeEng =    -11806.011563

siesta: Final energy (eV):
siesta:  Band Struct. =   -4828.262124
siesta:       Kinetic =   10341.662760
siesta:       Hartree =   33664.361531
siesta:    Ext. field =       0.000000
siesta:   Exch.-corr. =   -4631.022779
siesta:  Ion-electron =  -77239.086565
siesta:       Ion-ion =   26058.156531
siesta:       Ekinion =       0.000000
siesta:         Total =  -11805.928522

siesta: Atomic forces (eV/Ang):
siesta:      1   -0.197931  121.845415    0.000000
siesta:      2   30.037500    7.805861    0.000000
siesta:      3  -28.326387    5.581101    0.000000
siesta:      4    3.532818    2.378385    0.000000
siesta:      5    2.145473    3.872332    0.000000
siesta:      6   -0.137212   -0.435623    0.000000
siesta:      7    0.856648    5.264739    0.000000
siesta:      8    1.555759    2.339221    0.000000
siesta:      9   -0.891447    0.469076    0.000000
siesta:     10   28.107335    7.017389    0.000000
siesta:     11    1.079215   -0.328607    0.000000
siesta:     12   -2.176910  126.077985    0.000000
siesta:     13   13.056727  547.157074    0.000000
siesta:     14    1.594493 -123.548594    0.000000
siesta:     15  -12.674862 -543.840499    0.000000
siesta:     16   -0.004736  128.542692    0.000000
siesta:     17   21.195535 -554.057238    0.000000
siesta:     18   30.750740 -548.791724    0.000000
siesta:     19    0.225058    0.696382    0.000000
siesta:     20   -1.725042    1.448615    0.000000
siesta:     21    1.867393    2.629841    0.000000
siesta:     22   -0.603278    0.037363    0.000000
siesta:     23  -27.020602 -550.528683    0.000000
siesta:     24   28.336518  547.937618    0.000000
siesta:     25   -3.409907 -124.289909    0.000000
siesta:     26   34.184354  547.182248    0.000000
siesta:     27   26.304573   -6.502175    0.000000
siesta:     28   -3.207764   -1.834447    0.000000
siesta:     29    2.385232   -0.291199    0.000000
siesta:     30   -1.626137    0.428251    0.000000
siesta:     31    2.208857   -2.526058    0.000000
siesta:     32   -0.306840    7.916685    0.000000
siesta:     33   -0.134488   -7.780139    0.000000
siesta:     34  -30.782355  550.930008    0.000000
siesta:     35   -0.013489 -120.426911    0.000000
siesta:     36  -14.849534  543.568911    0.000000
siesta:     37    0.305799 -120.545529    0.000000
siesta:     38    8.291835  558.112494    0.000000
siesta:     39   25.117226   -4.228264    0.000000
siesta:     40   -1.668479    2.733752    0.000000
siesta:     41    0.603828   -0.181860    0.000000
siesta:     42   -0.360797    1.017355    0.000000
siesta:     43    0.120029   -1.043915    0.000000
siesta:     44  -25.721906  548.574772    0.000000
siesta:     45  -27.560364   -3.818619    0.000000
siesta:     46  -14.545599  557.855469    0.000000
siesta:     47  -24.765436   -5.253565    0.000000
siesta:     48    1.505247  568.539896    0.000000
siesta:     49   -0.902277    0.755995    0.000000
siesta:     50   -0.610777    1.309417    0.000000
siesta:     51    0.750198   -0.977445    0.000000
siesta:     52   -1.106423   -2.685202    0.000000
siesta:     53    0.378638   -0.090971    0.000000
siesta:     54   -0.742366   -0.780618    0.000000
siesta:     55    0.599563    0.884072    0.000000
siesta:     56   -1.774496   -1.849393    0.000000
siesta:     57    0.329257    1.116809    0.000000
siesta:     58   -0.325123   -0.996335    0.000000
siesta:     59   -0.356887   -5.035255    0.000000
siesta:     60   -0.898828   -0.162314    0.000000
siesta:     61   -0.997739    0.858186    0.000000
siesta:     62   -0.705494   -3.109931    0.000000
siesta:     63  -12.931650 -573.656609    0.000000
siesta:     64   -0.052183   -0.218229    0.000000
siesta:     65    1.439692   -1.650256    0.000000
siesta:     66    4.280577 -558.771507    0.000000
siesta:     67  -25.247740    7.300183    0.000000
siesta:     68  -10.034657 -567.225524    0.000000
siesta:     69    0.736609   -0.677134    0.000000
siesta:     70    1.524567  125.935776    0.000000
siesta:     71    6.459525 -551.288712    0.000000
siesta:     72   -2.475896 -546.795346    0.000000
siesta: ----------------------------------------
siesta:    Tot   -0.007218   -0.102974    0.000000

siesta: Stress tensor (static) (eV/Ang**3):
siesta:    -0.422215    0.000959    0.000000
siesta:     0.000960   -1.786095    0.000000
siesta:     0.000000    0.000000   -0.000039

siesta: Cell volume =       1893.226884 Ang**3

siesta: Pressure (static):
siesta:                Solid            Molecule  Units
siesta:           0.00801725          0.12655878  Ry/Bohr**3
siesta:           0.73611650         11.62019696  eV/Ang**3
siesta:        1179.40140714      18617.80928635  kBar
(Free)E+ p_basis*V_orbitals  =      -11776.989508
(Free)Eharris+ p_basis*V_orbitals  =      -11776.991419

siesta: Electric dipole (a.u.)  =    0.000000    0.000000    0.000000
siesta: Electric dipole (Debye) =    0.000000    0.000000    0.000000

* Maximum dynamic memory allocated : Node    0 =   205 MB
* Maximum dynamic memory allocated : Node    1 =    72 MB
* Maximum dynamic memory allocated : Node    2 =    75 MB
* Maximum dynamic memory allocated : Node    3 =   194 MB
* Maximum dynamic memory allocated : Node    4 =   193 MB
* Maximum dynamic memory allocated : Node    5 =    72 MB
* Maximum dynamic memory allocated : Node    6 =    73 MB
* Maximum dynamic memory allocated : Node    7 =   176 MB

* Maximum memory occured during matrixMtoO                    

timer: CPU execution times:
timer:  Routine       Calls   Time/call    Tot.time        %
timer:  siesta            1  134536.313  134536.313   100.00
timer:  Setup             1       2.680       2.680     0.00
timer:  bands             3     243.376     730.129     0.54
timer:  writewave         1       0.016       0.016     0.00
timer:  KSV_init          1       0.000       0.000     0.00
timer:  IterMD            1  133798.276  133798.276    99.45
timer:  hsparse           1       0.285       0.285     0.00
timer:  overlap           1       6.703       6.703     0.00
timer:  IterSCF          40    3341.041  133641.634    99.33
timer:  kinefsm           2       3.468       6.936     0.01
timer:  nlefsm            2      17.720      35.440     0.03
timer:  DHSCF            41      78.633    3223.958     2.40
timer:  DHSCF1            1       0.746       0.746     0.00
timer:  DHSCF2            1      31.168      31.168     0.02
timer:  REORD           330       0.005       1.678     0.00
timer:  POISON           42       0.871      36.564     0.03
timer:  DHSCF3           41      77.108    3161.440     2.35
timer:  rhoofd           41      16.448     674.378     0.50
timer:  cellXC           41       3.269     134.047     0.10
timer:  vmat             41      35.978    1475.094     1.10
timer:  MolMec            2       0.000       0.000     0.00
timer:  diagon           40    3261.688  130467.507    96.98
timer:  c-eigval       9361       6.023   56385.483    41.91
timer:  c-buildHS      9361       0.048     451.216     0.34
timer:  cdiag         18601       6.151  114410.541    85.04
timer:  cdiag1        18601       0.384    7144.170     5.31
timer:  cdiag2        18601       1.767   32859.787    24.42
timer:  cdiag3        18601       3.735   69469.966    51.64
timer:  cdiag4        18601       0.149    2766.602     2.06
timer:  c-eigvec       9240       6.366   58820.883    43.72
timer:  c-buildD       9240       1.726   15943.789    11.85
timer:  DHSCF4            1      29.617      29.617     0.02
timer:  dfscf             1      27.717      27.717     0.02
timer:  overfsm           1       0.385       0.385     0.00
timer:  optical           1       4.562       4.562     0.00
  

elaps: ELAPSED times:
elaps:  Routine       Calls   Time/call    Tot.time        %
elaps:  siesta            1   16849.397   16849.397   100.00
elaps:  Setup             1       0.336       0.336     0.00
elaps:  bands             3      30.497      91.492     0.54
elaps:  writewave         1       0.002       0.002     0.00
elaps:  KSV_init          1       0.000       0.000     0.00
elaps:  IterMD            1   16756.964   16756.964    99.45
elaps:  hsparse           1       0.036       0.036     0.00
elaps:  overlap           1       0.899       0.899     0.01
elaps:  IterSCF          40     418.434   16737.349    99.33
elaps:  kinefsm           2       0.464       0.928     0.01
elaps:  nlefsm            2       2.277       4.555     0.03
elaps:  DHSCF            41       9.944     407.724     2.42
elaps:  DHSCF1            1       0.095       0.095     0.00
elaps:  DHSCF2            1       3.903       3.903     0.02
elaps:  REORD           330       0.001       0.220     0.00
elaps:  POISON           42       0.110       4.611     0.03
elaps:  DHSCF3           41       9.658     395.960     2.35
elaps:  rhoofd           41       4.602     188.680     1.12
elaps:  cellXC           41       0.409      16.773     0.10
elaps:  vmat             41       4.506     184.749     1.10
elaps:  MolMec            2       0.000       0.000     0.00
elaps:  diagon           40     408.497   16339.864    96.98
elaps:  c-eigval       9361       0.754    7061.614    41.91
elaps:  c-buildHS      9361       0.007      61.560     0.37
elaps:  cdiag         18601       0.769   14306.700    84.91
elaps:  cdiag1        18601       0.048     898.606     5.33
elaps:  cdiag2        18601       0.221    4116.264    24.43
elaps:  cdiag3        18601       0.468    8711.690    51.70
elaps:  cdiag4        18601       0.018     341.930     2.03
elaps:  c-eigvec       9240       0.796    7356.474    43.66
elaps:  c-buildD       9240       0.217    2004.769    11.90
elaps:  DHSCF4            1       7.640       7.640     0.05
elaps:  dfscf             1       7.231       7.231     0.04
elaps:  overfsm           1       0.049       0.049     0.00
elaps:  optical           1       0.000       0.000     0.00
  
>> End of run:   7-MAY-2016   8:13:53
