Siesta Version:                                        siesta-3.2-pl-3
Architecture  : x86_64-unknown-linux-gnu--unknown
Compiler flags: mpiifort -g -O2 -fPIC -xSSE4.1 -fp-model source -shared-intel 
PARALLEL version

* Running on    8 nodes in parallel
>> Start of run:  30-APR-2016   7:04:31

                           ***********************       
                           *  WELCOME TO SIESTA  *       
                           ***********************       

reinit: Reading from standard input
************************** Dump of input data file ****************************
#(1) General system descriptors
SystemName            GRP_doping    # Descriptive name of the system
SystemLabel           GRP_doping    # Short name for naming files
%include STRUCT.fdf
%include KPT.fdf
%include BASIS.fdf
#%include TS.fdf # for transiesta calculation
#(4) DFT, Grid, SCF
XC.functional         GGA           # LDA or GGA (default = LDA)
XC.authors            PBE           # CA (Ceperley-Aldr) = PZ
                                    #    (Perdew-Zunger) - LDA - Default
                                    # PW92 (Perdew-Wang-92) - LDA
                                    # PBE (Perdew-Burke-Ernzerhof) - GGA
MeshCutoff            200.000000    Ry      # Default: 50.0 Ry ~ 0.444 Bohr
                                    #         100.0 Ry ~ 0.314 Bohr
MaxSCFIterations      500           # Default: 50
DM.MixingWeight       0.05          # Default: 0.25
DM.NumberPulay        10            # Default: 0
DM.PulayOnFile        F             # SystemLabel.P1, SystemLabel.P2
DM.Tolerance          1.d-4         # Default: 1.d-4
DM.UseSaveDM          .true.        # because of the bug
SCFMustConverge       .true.
NeglNonOverlapInt     F             # Default: F
#(5) Eigenvalue problem: order-N or diagonalization
SolutionMethod        Diagon        # or Transiesta
ElectronicTemperature 300.0 K       # Default: 300.0 K
#(6) Molecular dynamics and relaxations
#MD.TypeOfRun          CG            # Type of dynamics:
#MD.VariableCell       F
#MD.NumCGsteps         0           # 0 for single-point / 100 for gopt
#MD.MaxCGDispl         0.2 Bohr      # Default: 0.2 Bohr
#MD.MaxForceTol        0.02 eV/Ang   # Default: 0.04 eV/Ang
#MD.MaxStressTol       1.0 GPa       # Default: 1.0 GPa
# Geometry Constraints
#%block GeometryConstraints
#	position from 1 to 44
#%endblock GeometryConstraints
BandLinesScale   pi/a
%block BandLines
 1   0.00000000  0.00000000  0.00000000
50   0.00000000  0.07809418  0.00000000
50   0.04509075  0.07809242  0.00000000
20   0.00000000  0.00000000  0.00000000
%endblock BandLines
************************** End of input data file *****************************

reinit: -----------------------------------------------------------------------
reinit: System Name: GRP_doping
reinit: -----------------------------------------------------------------------
reinit: System Label: GRP_doping                                                  
reinit: -----------------------------------------------------------------------

initatom: Reading input for the pseudopotentials and atomic orbitals ----------
 Species number:            1  Label: B Atomic number:           5
 Species number:            2  Label: C Atomic number:           6
Ground state valence configuration:   2s02  2p01
Reading pseudopotential information in formatted form from B.psf

Valence configuration for pseudopotential generation:
2s( 2.00) rc: 1.74
2p( 1.00) rc: 1.74
3d( 0.00) rc: 1.74
4f( 0.00) rc: 1.74
Ground state valence configuration:   2s02  2p02
Reading pseudopotential information in formatted form from C.psf

Valence configuration for pseudopotential generation:
2s( 2.00) rc: 1.54
2p( 2.00) rc: 1.54
3d( 0.00) rc: 1.54
4f( 0.00) rc: 1.54
For B, standard SIESTA heuristics set lmxkb to 3
 (one more than the basis l, including polarization orbitals).
Use PS.lmax or PS.KBprojectors blocks to override.
For C, standard SIESTA heuristics set lmxkb to 3
 (one more than the basis l, including polarization orbitals).
Use PS.lmax or PS.KBprojectors blocks to override.

<basis_specs>
===============================================================================
B                    Z=   5    Mass=  10.810        Charge= 0.17977+309
Lmxo=1 Lmxkb= 3    BasisType=split      Semic=F
L=0  Nsemic=0  Cnfigmx=2
          n=1  nzeta=2  polorb=0
            splnorm:   0.15000    
               vcte:    0.0000    
               rinn:    0.0000    
                rcs:    0.0000      0.0000    
            lambdas:    1.0000      1.0000    
L=1  Nsemic=0  Cnfigmx=2
          n=1  nzeta=2  polorb=1
            splnorm:   0.15000    
               vcte:    0.0000    
               rinn:    0.0000    
                rcs:    0.0000      0.0000    
            lambdas:    1.0000      1.0000    
-------------------------------------------------------------------------------
L=0  Nkbl=1  erefs: 0.17977+309
L=1  Nkbl=1  erefs: 0.17977+309
L=2  Nkbl=1  erefs: 0.17977+309
L=3  Nkbl=1  erefs: 0.17977+309
===============================================================================
</basis_specs>

atom: Called for B                     (Z =   5)

read_vps: Pseudopotential generation method:
read_vps: ATM3      Troullier-Martins                       
Total valence charge:    3.00000

read_vps: Pseudopotential includes a core correction:
read_vps: Pseudo-core for xc-correction

xc_check: Exchange-correlation functional:
xc_check: GGA Perdew, Burke & Ernzerhof 1996
V l=0 = -2*Zval/r beyond r=  1.7165
V l=1 = -2*Zval/r beyond r=  1.7165
V l=2 = -2*Zval/r beyond r=  1.7165
V l=3 = -2*Zval/r beyond r=  1.6951
All V_l potentials equal beyond r=  1.7165
This should be close to max(r_c) in ps generation
All pots = -2*Zval/r beyond r=  1.7165

VLOCAL1: 99.0% of the norm of Vloc inside     14.733 Ry
VLOCAL1: 99.9% of the norm of Vloc inside     33.577 Ry
atom: Maximum radius for 4*pi*r*r*local-pseudopot. charge    2.04484
atom: Maximum radius for r*vlocal+2*Zval:    1.75994
GHOST: No ghost state for L =  0
GHOST: No ghost state for L =  1
GHOST: No ghost state for L =  2
GHOST: No ghost state for L =  3

KBgen: Kleinman-Bylander projectors: 
   l= 0   rc=  1.897051   el= -0.693730   Ekb=  4.595746   kbcos=  0.286105
   l= 1   rc=  1.920920   el= -0.265236   Ekb= -2.350715   kbcos= -0.315747
   l= 2   rc=  2.044840   el=  0.002055   Ekb= -0.690767   kbcos= -0.013822
   l= 3   rc=  2.149707   el=  0.003188   Ekb= -0.315358   kbcos= -0.002055

KBgen: Total number of  Kleinman-Bylander projectors:   16
atom: -------------------------------------------------------------------------

atom: SANKEY-TYPE ORBITALS:
atom: Selected multiple-zeta basis: split     

SPLIT: Orbitals with angular momentum L= 0

SPLIT: Basis orbitals for state 2s

SPLIT: PAO cut-off radius determined from an
SPLIT: energy shift=  0.007350 Ry

   izeta = 1
                 lambda =    1.000000
                     rc =    5.422032
                 energy =   -0.686029
                kinetic =    0.576707
    potential(screened) =   -1.262736
       potential(ionic) =   -3.271094

   izeta = 2
                 rmatch =    4.222573
              splitnorm =    0.150000
                 energy =   -0.602132
                kinetic =    0.858975
    potential(screened) =   -1.461107
       potential(ionic) =   -3.582536

SPLIT: Orbitals with angular momentum L= 1

SPLIT: Basis orbitals for state 2p

SPLIT: PAO cut-off radius determined from an
SPLIT: energy shift=  0.007350 Ry

   izeta = 1
                 lambda =    1.000000
                     rc =    6.790259
                 energy =   -0.258578
                kinetic =    1.481412
    potential(screened) =   -1.739989
       potential(ionic) =   -3.657461

   izeta = 2
                 rmatch =    4.608740
              splitnorm =    0.150000
                 energy =   -0.173757
                kinetic =    2.186690
    potential(screened) =   -2.360447
       potential(ionic) =   -4.464260

POLgen: Perturbative polarization orbital with L=  2

POLgen: Polarization orbital for state 2p

   izeta = 1
                     rc =    6.790259
                 energy =    0.684082
                kinetic =    1.471481
    potential(screened) =   -0.787399
       potential(ionic) =   -2.406985
atom: Total number of Sankey-type orbitals: 13

atm_pop: Valence configuration (for local Pseudopot. screening):
 2s( 2.00)                                                            
 2p( 1.00)                                                            
Vna: chval, zval:    3.00000   3.00000

Vna:  Cut-off radius for the neutral-atom potential:   6.790259
comcore: Pseudo-core radius Rcore=  2.122997

atom: _________________________________________________________________________

<basis_specs>
===============================================================================
C                    Z=   6    Mass=  12.010        Charge= 0.17977+309
Lmxo=1 Lmxkb= 3    BasisType=split      Semic=F
L=0  Nsemic=0  Cnfigmx=2
          n=1  nzeta=2  polorb=0
            splnorm:   0.15000    
               vcte:    0.0000    
               rinn:    0.0000    
                rcs:    0.0000      0.0000    
            lambdas:    1.0000      1.0000    
L=1  Nsemic=0  Cnfigmx=2
          n=1  nzeta=2  polorb=1
            splnorm:   0.15000    
               vcte:    0.0000    
               rinn:    0.0000    
                rcs:    0.0000      0.0000    
            lambdas:    1.0000      1.0000    
-------------------------------------------------------------------------------
L=0  Nkbl=1  erefs: 0.17977+309
L=1  Nkbl=1  erefs: 0.17977+309
L=2  Nkbl=1  erefs: 0.17977+309
L=3  Nkbl=1  erefs: 0.17977+309
===============================================================================
</basis_specs>

atom: Called for C                     (Z =   6)

read_vps: Pseudopotential generation method:
read_vps: ATM3      Troullier-Martins                       
Total valence charge:    4.00000

read_vps: Pseudopotential includes a core correction:
read_vps: Pseudo-core for xc-correction

xc_check: Exchange-correlation functional:
xc_check: GGA Perdew, Burke & Ernzerhof 1996
V l=0 = -2*Zval/r beyond r=  1.5227
V l=1 = -2*Zval/r beyond r=  1.5227
V l=2 = -2*Zval/r beyond r=  1.5227
V l=3 = -2*Zval/r beyond r=  1.5038
All V_l potentials equal beyond r=  1.5227
This should be close to max(r_c) in ps generation
All pots = -2*Zval/r beyond r=  1.5227

VLOCAL1: 99.0% of the norm of Vloc inside     18.722 Ry
VLOCAL1: 99.9% of the norm of Vloc inside     42.668 Ry
atom: Maximum radius for 4*pi*r*r*local-pseudopot. charge    1.83678
atom: Maximum radius for r*vlocal+2*Zval:    1.58088
GHOST: No ghost state for L =  0
GHOST: No ghost state for L =  1
GHOST: No ghost state for L =  2
GHOST: No ghost state for L =  3

KBgen: Kleinman-Bylander projectors: 
   l= 0   rc=  1.704034   el= -1.009801   Ekb=  5.335044   kbcos=  0.316824
   l= 1   rc=  1.704034   el= -0.388707   Ekb= -3.785862   kbcos= -0.366464
   l= 2   rc=  1.791422   el=  0.001971   Ekb= -0.970471   kbcos= -0.009212
   l= 3   rc=  1.859892   el=  0.003065   Ekb= -0.399525   kbcos= -0.001223

KBgen: Total number of  Kleinman-Bylander projectors:   16
atom: -------------------------------------------------------------------------

atom: SANKEY-TYPE ORBITALS:
atom: Selected multiple-zeta basis: split     

SPLIT: Orbitals with angular momentum L= 0

SPLIT: Basis orbitals for state 2s

SPLIT: PAO cut-off radius determined from an
SPLIT: energy shift=  0.007350 Ry

   izeta = 1
                 lambda =    1.000000
                     rc =    4.632753
                 energy =   -1.002270
                kinetic =    0.855760
    potential(screened) =   -1.858031
       potential(ionic) =   -5.417575

   izeta = 2
                 rmatch =    3.431921
              splitnorm =    0.150000
                 energy =   -0.867111
                kinetic =    1.300804
    potential(screened) =   -2.167915
       potential(ionic) =   -5.962684

SPLIT: Orbitals with angular momentum L= 1

SPLIT: Basis orbitals for state 2p

SPLIT: PAO cut-off radius determined from an
SPLIT: energy shift=  0.007350 Ry

   izeta = 1
                 lambda =    1.000000
                     rc =    5.658549
                 energy =   -0.381140
                kinetic =    2.399701
    potential(screened) =   -2.780841
       potential(ionic) =   -6.206085

   izeta = 2
                 rmatch =    3.653288
              splitnorm =    0.150000
                 energy =   -0.249149
                kinetic =    3.542762
    potential(screened) =   -3.791911
       potential(ionic) =   -7.581078

POLgen: Perturbative polarization orbital with L=  2

POLgen: Polarization orbital for state 2p

   izeta = 1
                     rc =    5.658549
                 energy =    1.109913
                kinetic =    2.304789
    potential(screened) =   -1.194876
       potential(ionic) =   -4.013592
atom: Total number of Sankey-type orbitals: 13

atm_pop: Valence configuration (for local Pseudopot. screening):
 2s( 2.00)                                                            
 2p( 2.00)                                                            
Vna: chval, zval:    4.00000   4.00000

Vna:  Cut-off radius for the neutral-atom potential:   5.658549
comcore: Pseudo-core radius Rcore=  1.791422

atom: _________________________________________________________________________

prinput: Basis input ----------------------------------------------------------

PAO.BasisType split     

%block ChemicalSpeciesLabel
    1    5 B                       # Species index, atomic number, species label
    2    6 C                       # Species index, atomic number, species label
%endblock ChemicalSpeciesLabel

%block PAO.Basis                 # Define Basis set
B                     2                    # Species label, number of l-shells
 n=2   0   2                         # n, l, Nzeta 
   5.422      4.223   
   1.000      1.000   
 n=2   1   2 P   1                   # n, l, Nzeta, Polarization, NzetaPol
   6.790      4.609   
   1.000      1.000   
C                     2                    # Species label, number of l-shells
 n=2   0   2                         # n, l, Nzeta 
   4.633      3.432   
   1.000      1.000   
 n=2   1   2 P   1                   # n, l, Nzeta, Polarization, NzetaPol
   5.659      3.653   
   1.000      1.000   
%endblock PAO.Basis

prinput: ----------------------------------------------------------------------

coor:   Atomic-coordinates input format  =     Fractional

siesta: Atomic coordinates (Bohr) and species
siesta:      2.30256  38.89134   0.00000  1        1
siesta:      2.30256  41.57980   0.00000  1        2
siesta:      4.63094  34.85847   0.00000  1        3
siesta:      4.63094  37.54693   0.00000  1        4
siesta:      6.95932  30.82560   0.00000  1        5
siesta:      6.95932  33.51406   0.00000  1        6
siesta:      9.28770  26.79272   0.00000  1        7
siesta:      9.28770  29.48119   0.00000  1        8
siesta:      4.63094  21.41544   0.00000  1        9
siesta:      6.95932  22.75985   0.00000  1       10
siesta:      6.95932  25.44831   0.00000  1       11
siesta:      2.30256  25.44831   0.00000  1       12
siesta:     -4.68258  21.41544   0.00000  1       13
siesta:     -2.35420  22.75985   0.00000  1       14
siesta:     -7.01096  22.75985   0.00000  1       15
siesta:     -7.01096  25.44831   0.00000  1       16
siesta:     -9.33934  26.79272   0.00000  1       17
siesta:     -0.02582  26.79272   0.00000  1       18
siesta:     -0.02582  29.48119   0.00000  1       19
siesta:     -0.02582   2.59549   0.00000  2       20
siesta:     -0.02582   5.28395   0.00000  2       21
siesta:     -2.35420  38.89134   0.00000  2       22
siesta:     -2.35420  41.57980   0.00000  2       23
siesta:     -4.68258  34.85847   0.00000  2       24
siesta:     -4.68258  37.54693   0.00000  2       25
siesta:      2.30256   6.62836   0.00000  2       26
siesta:      2.30256   9.31683   0.00000  2       27
siesta:      4.63094  10.66124   0.00000  2       28
siesta:      4.63094  13.34970   0.00000  2       29
siesta:      6.95932  14.69411   0.00000  2       30
siesta:      6.95932  17.38257   0.00000  2       31
siesta:      9.28770  18.72698   0.00000  2       32
siesta:      9.28770  21.41544   0.00000  2       33
siesta:     11.61608  22.75985   0.00000  2       34
siesta:     11.61608  25.44831   0.00000  2       35
siesta:     -2.35420   6.62836   0.00000  2       36
siesta:     -2.35420   9.31683   0.00000  2       37
siesta:     -0.02582  10.66124   0.00000  2       38
siesta:     -0.02582  13.34970   0.00000  2       39
siesta:      2.30256  14.69411   0.00000  2       40
siesta:      2.30256  17.38257   0.00000  2       41
siesta:      4.63094  18.72698   0.00000  2       42
siesta:     -4.68258  10.66124   0.00000  2       43
siesta:     -4.68258  13.34970   0.00000  2       44
siesta:     -2.35420  14.69411   0.00000  2       45
siesta:     -2.35420  17.38257   0.00000  2       46
siesta:     -0.02582  18.72698   0.00000  2       47
siesta:     -0.02582  21.41544   0.00000  2       48
siesta:      2.30256  22.75985   0.00000  2       49
siesta:     -7.01096  14.69411   0.00000  2       50
siesta:     -7.01096  17.38257   0.00000  2       51
siesta:     -4.68258  18.72698   0.00000  2       52
siesta:     -2.35420  25.44831   0.00000  2       53
siesta:     -9.33934  18.72698   0.00000  2       54
siesta:     -9.33934  21.41544   0.00000  2       55
siesta:    -11.66772  22.75985   0.00000  2       56
siesta:    -11.66772  25.44831   0.00000  2       57
siesta:     -9.33934  29.48119   0.00000  2       58
siesta:      4.63094  26.79272   0.00000  2       59
siesta:      4.63094  29.48119   0.00000  2       60
siesta:     -4.68258  26.79272   0.00000  2       61
siesta:     -4.68258  29.48119   0.00000  2       62
siesta:      2.30256  30.82560   0.00000  2       63
siesta:      2.30256  33.51406   0.00000  2       64
siesta:     -2.35420  30.82560   0.00000  2       65
siesta:     -2.35420  33.51406   0.00000  2       66
siesta:     -7.01096  30.82560   0.00000  2       67
siesta:     -7.01096  33.51406   0.00000  2       68
siesta:     -0.02582  34.85847   0.00000  2       69
siesta:     -0.02582  37.54693   0.00000  2       70
siesta:     -0.02582  42.92421   0.00000  2       71
siesta:     -0.02582  45.61267   0.00000  2       72

siesta: System type = slab      

initatomlists: Number of atoms, orbitals, and projectors:     72   936  1152

siesta: ******************** Simulation parameters ****************************
siesta:
siesta: The following are some of the parameters of the simulation.
siesta: A complete list of the parameters used, including default values,
siesta: can be found in file out.fdf
siesta:
redata: Non-Collinear-spin run           =     F
redata: SpinPolarized (Up/Down) run      =     F
redata: Number of spin components        =     1
redata: Long output                      =     F
redata: Number of Atomic Species         =        2
redata: Charge density info will appear in .RHO file
redata: Write Mulliken Pop.              =     NO
redata: Mesh Cutoff                      =   200.0000  Ry
redata: Net charge of the system         =     0.0000 |e|
redata: Max. number of SCF Iter          =      500
redata: SCF convergence failure will abort job
redata: Performing Pulay mixing using    =    10 iterations
redata: Mix DM in first SCF step ?       =     F
redata: Write Pulay info on disk?        =     F
redata: Discard 1st Pulay DM after  kick =     F
redata: New DM Mixing Weight             =     0.0500
redata: New DM Occupancy tolerance       = 0.000000000001
redata: No kicks to SCF
redata: DM Mixing Weight for Kicks       =     0.5000
redata: DM Tolerance for SCF             =     0.000100
redata: Require Energy convergence for SCF =     F
redata: DM Energy tolerance for SCF      =     0.000100 eV
redata: Require Harris convergence for SCF =     F
redata: DM Harris energy tolerance for SCF =     0.000100 eV
redata: Using Saved Data (generic)   =     F
redata: Use continuation files for DM    =     T
redata: Neglect nonoverlap interactions  =     F
redata: Method of Calculation            =     Diagonalization
redata: Divide and Conquer               =     T
redata: Electronic Temperature           =     0.0019  Ry
redata: Fix the spin of the system       =     F
redata: Dynamics option                  =     Verlet MD run
redata: Initial MD time step             =        1
redata:   Final MD time step             =        1
redata: Length of MD time step           =     1.0000  fs
redata: Initial Temperature of MD run    =     0.0000  K
redata: Perform a MD quench              =     F
redata: ***********************************************************************
Total number of electrons:   269.000000
Total ionic charge:   269.000000

* ProcessorY, Blocksize:    2  24

k-point displ. along   1 input, could be:     0.50    0.00
k-point displ. along   2 input, could be:     0.50    0.00
 Kpoints in:          231 . Kpoints trimmed:          231

siesta: k-grid: Number of k-points =   231
siesta: k-grid: Cutoff (effective) =     5.000 Ang
siesta: k-grid: Supercell and displacements
siesta: k-grid:   21   0   0      0.500
siesta: k-grid:    0  21   0      0.500
siesta: k-grid:    0   0   1      0.000
Naive supercell factors:     2    2    2

superc: Internal auxiliary supercell:     2 x     2 x     2  =       8
superc: Number of atoms, orbitals, and projectors:    576   7488   9216

* Maximum dynamic memory allocated =     4 MB

siesta:                 ==============================
                            Begin MD step =      1
                        ==============================

superc: Internal auxiliary supercell:     2 x     2 x     2  =       8
superc: Number of atoms, orbitals, and projectors:    576   7488   9216

outcell: Unit cell vectors (Ang):
       12.804619    7.392750    0.000000
        0.000000   14.785500    0.000000
        0.000000    0.000000   10.000000

outcell: Cell vector modules (Ang)   :   14.785500   14.785500   10.000000
outcell: Cell angles (23,13,12) (deg):     90.0000     90.0000     60.0000
outcell: Cell volume (Ang**3)        :   1893.2269
New_DM. Step:     1
Initializing Density Matrix...

InitMesh: MESH =   120 x   120 x    90 =     1296000
InitMesh: Mesh cutoff (required, used) =   200.000   223.865 Ry

* Maximum dynamic memory allocated =   222 MB

stepf: Fermi-Dirac step function

siesta: Program's energy decomposition (eV):
siesta: Ebs     =     -5549.458077
siesta: Eions   =     15969.933558
siesta: Ena     =      4263.680496
siesta: Ekin    =      5376.155659
siesta: Enl     =       793.813254
siesta: DEna    =        -0.000008
siesta: DUscf   =         0.000000
siesta: DUext   =         0.000000
siesta: Exc     =     -4200.640118
siesta: eta*DQ  =         0.000000
siesta: Emadel  =         0.000000
siesta: Emeta   =         0.000000
siesta: Emolmec =         0.000000
siesta: Ekinion =         0.000000
siesta: Eharris =     -9463.201580
siesta: Etot    =     -9736.924276
siesta: FreeEng =     -9736.924276

siesta: iscf   Eharris(eV)      E_KS(eV)   FreeEng(eV)   dDmax  Ef(eV)
siesta:    1    -9463.2016    -9736.9243    -9736.9243  7.2437 -8.4055
timer: Routine,Calls,Time,% = IterSCF        1    3458.894  99.69
elaps: Routine,Calls,Wall,% = IterSCF        1     433.208  99.69
siesta:    2   -13384.2261    -8766.0064    -8766.0710 18.6187 -2.5640
siesta:    3    -9416.8504    -9580.0676    -9580.1308  2.7782 -6.8100
siesta:    4    -9381.7973    -9463.7843    -9463.8198  1.2679 -5.8376
siesta:    5    -9343.4417    -9379.8597    -9379.8963  1.2159 -5.2478
siesta:    6    -9321.5138    -9355.2725    -9355.3159  1.0625 -5.0547
siesta:    7    -9311.1092    -9334.3389    -9334.3900  0.7517 -5.1462
siesta:    8    -9309.7953    -9330.2749    -9330.3556  0.7422 -5.1558
siesta:    9    -9308.6051    -9325.8258    -9325.8877  0.6861 -5.1625
siesta:   10    -9308.1633    -9308.4074    -9308.5023  0.4895 -5.1230
siesta:   11    -9306.9823    -9302.7736    -9302.8274  0.4488 -5.0781
siesta:   12    -9307.1538    -9295.7920    -9295.8752  0.4637 -5.0720
siesta:   13    -9306.8678    -9288.1885    -9288.2656  0.2204 -5.0506
siesta:   14    -9306.5837    -9288.3373    -9288.4231  0.1772 -5.0347
siesta:   15    -9306.4256    -9289.1019    -9289.1808  0.1647 -5.0324
siesta:   16    -9306.1594    -9292.9285    -9293.0081  0.2385 -5.0440
siesta:   17    -9306.0080    -9296.5856    -9296.6654  0.1028 -5.0691
siesta:   18    -9305.9099    -9298.0229    -9298.1049  0.0500 -5.0816
siesta:   19    -9305.9000    -9298.3104    -9298.4001  0.0453 -5.0846
siesta:   20    -9305.8891    -9299.8853    -9299.9759  0.0569 -5.0881
siesta:   21    -9305.8769    -9302.2466    -9302.3340  0.0272 -5.0974
siesta:   22    -9305.8738    -9303.7312    -9303.8181  0.0251 -5.1000
siesta:   23    -9305.8698    -9304.8648    -9304.9519  0.0161 -5.1001
siesta:   24    -9305.8683    -9305.0598    -9305.1477  0.0179 -5.0976
siesta:   25    -9305.8671    -9305.6767    -9305.7652  0.0095 -5.0972
siesta:   26    -9305.8674    -9305.9492    -9306.0378  0.0076 -5.0964
siesta:   27    -9305.8673    -9306.1116    -9306.1999  0.0047 -5.0953
siesta:   28    -9305.8671    -9306.0650    -9306.1532  0.0027 -5.0944
siesta:   29    -9305.8669    -9305.9881    -9306.0764  0.0016 -5.0936
siesta:   30    -9305.8671    -9305.9662    -9306.0547  0.0014 -5.0933
siesta:   31    -9305.8671    -9305.9363    -9306.0247  0.0011 -5.0931
siesta:   32    -9305.8671    -9305.9061    -9305.9944  0.0009 -5.0932
siesta:   33    -9305.8671    -9305.8951    -9305.9834  0.0011 -5.0932
siesta:   34    -9305.8671    -9305.8697    -9305.9580  0.0008 -5.0933
siesta:   35    -9305.8671    -9305.8586    -9305.9469  0.0006 -5.0934
siesta:   36    -9305.8671    -9305.8563    -9305.9446  0.0003 -5.0935
siesta:   37    -9305.8671    -9305.8588    -9305.9471  0.0001 -5.0935
siesta:   38    -9305.8671    -9305.8603    -9305.9486  0.0001 -5.0935

siesta: E_KS(eV) =            -9305.8641

siesta: E_KS - E_eggbox =     -9305.8641

siesta: Atomic forces (eV/Ang):
----------------------------------------
   Tot   -0.223571   -0.202402    0.000000
----------------------------------------
   Max  565.973004
   Res  148.310857    sqrt( Sum f_i^2 / 3N )
----------------------------------------
   Max  565.973004    constrained

Stress-tensor-Voigt (kbar):     -794.75    -2716.40       -0.66        0.96        0.00        0.00
(Free)E + p*V (eV/cell)    -7922.7126
Target enthalpy (eV/cell)    -9305.9524

siesta: Stress tensor (static) (eV/Ang**3):
        -0.496038    0.000600    0.000000
         0.000599   -1.695427    0.000000
         0.000000    0.000000   -0.000411

siesta: Pressure (static):       1170.60370586  kBar

siesta: Stress tensor (total) (eV/Ang**3):
        -0.496038    0.000600    0.000000
         0.000599   -1.695427    0.000000
         0.000000    0.000000   -0.000411

siesta: Pressure (total):       1170.60370586  kBar

siesta: Temp_ion =       0.000 K

* Maximum dynamic memory allocated =   238 MB
Computing bands...

siesta: Program's energy decomposition (eV):
siesta: Ebs     =     -4200.976566
siesta: Eions   =     15969.933558
siesta: Ena     =      4263.680496
siesta: Ekin    =      8263.801438
siesta: Enl     =      -812.043986
siesta: DEna    =      -785.834269
siesta: DUscf   =       105.925300
siesta: DUext   =         0.000000
siesta: Exc     =     -4371.459494
siesta: eta*DQ  =         0.000000
siesta: Emadel  =         0.000000
siesta: Emeta   =         0.000000
siesta: Emolmec =         0.000000
siesta: Ekinion =         0.000000
siesta: Eharris =     -9305.867057
siesta: Etot    =     -9305.864072
siesta: FreeEng =     -9305.952388

siesta: Final energy (eV):
siesta:  Band Struct. =   -4200.976566
siesta:       Kinetic =    8263.801438
siesta:       Hartree =   27304.047647
siesta:    Ext. field =       0.000000
siesta:   Exch.-corr. =   -4371.459494
siesta:  Ion-electron =  -62595.340117
siesta:       Ion-ion =   22093.086453
siesta:       Ekinion =       0.000000
siesta:         Total =   -9305.864072

siesta: Atomic forces (eV/Ang):
siesta:      1    1.707072  104.652925    0.000000
siesta:      2    4.366159 -397.559069    0.000000
siesta:      3   16.933281    0.545970    0.000000
siesta:      4   20.669392 -394.667900    0.000000
siesta:      5   -1.066274    1.470768    0.000000
siesta:      6    3.458181    4.054464    0.000000
siesta:      7    8.917882   -0.939968    0.000000
siesta:      8    4.406592    2.862306    0.000000
siesta:      9   -3.560874   -1.512823    0.000000
siesta:     10    3.424042   -3.123480    0.000000
siesta:     11   -4.967137    3.007870    0.000000
siesta:     12    2.770622   -1.100313    0.000000
siesta:     13   -0.177087   -3.703119    0.000000
siesta:     14    3.111760    1.040970    0.000000
siesta:     15   -3.221326   -3.069579    0.000000
siesta:     16    4.684324    3.048730    0.000000
siesta:     17   -8.885190    3.608454    0.000000
siesta:     18   -3.909674   -0.381848    0.000000
siesta:     19   -0.493463 -408.906778    0.000000
siesta:     20   -0.637881  406.263922    0.000000
siesta:     21    0.933448 -125.959456    0.000000
siesta:     22    1.007623  127.627486    0.000000
siesta:     23  -14.502059 -545.977909    0.000000
siesta:     24  -26.811200    3.635220    0.000000
siesta:     25  -32.163734 -549.485173    0.000000
siesta:     26   10.620965  546.945953    0.000000
siesta:     27   11.686631 -129.233763    0.000000
siesta:     28   31.444623  402.993150    0.000000
siesta:     29   23.919423    4.208864    0.000000
siesta:     30   -2.416624   -2.668525    0.000000
siesta:     31    1.409484   -0.915388    0.000000
siesta:     32   -1.297268    0.037682    0.000000
siesta:     33    6.654359   -3.326716    0.000000
siesta:     34    0.165993    5.393084    0.000000
siesta:     35    1.823212   -6.449293    0.000000
siesta:     36  -13.463362  548.328516    0.000000
siesta:     37   -0.629559 -125.028417    0.000000
siesta:     38  -12.747686  547.608234    0.000000
siesta:     39    2.935679 -129.029501    0.000000
siesta:     40   31.651586  412.504899    0.000000
siesta:     41   22.127905   -2.747162    0.000000
siesta:     42   -1.682497   -2.266609    0.000000
siesta:     43  -33.054963  549.287874    0.000000
siesta:     44  -26.849506   -3.809245    0.000000
siesta:     45  -28.975214  554.484814    0.000000
siesta:     46  -22.045255   -5.814538    0.000000
siesta:     47   -0.066140  565.973004    0.000000
siesta:     48    3.117867   -0.603659    0.000000
siesta:     49   -2.979092   -3.844214    0.000000
siesta:     50    2.651407   -1.656640    0.000000
siesta:     51   -2.194349   -1.252976    0.000000
siesta:     52    1.372364   -1.614948    0.000000
siesta:     53   -1.842977    3.206296    0.000000
siesta:     54    1.300301    0.213410    0.000000
siesta:     55   -6.057271   -4.083089    0.000000
siesta:     56   -0.836131    5.212003    0.000000
siesta:     57   -2.216963   -7.356933    0.000000
siesta:     58    3.135047    3.242264    0.000000
siesta:     59    0.170097    3.065257    0.000000
siesta:     60   -3.665294   -2.517424    0.000000
siesta:     61    2.797245    1.126805    0.000000
siesta:     62    1.833790   -1.191297    0.000000
siesta:     63   20.964514    2.338406    0.000000
siesta:     64   31.463077 -552.020297    0.000000
siesta:     65  -21.776903    2.042377    0.000000
siesta:     66  -26.149020 -556.574185    0.000000
siesta:     67   -2.587446    1.197359    0.000000
siesta:     68    2.630947    2.013613    0.000000
siesta:     69    0.083501  127.122829    0.000000
siesta:     70   11.259155 -538.008245    0.000000
siesta:     71    8.292350  118.952585    0.000000
siesta:     72    1.803945 -551.120285    0.000000
siesta: ----------------------------------------
siesta:    Tot   -0.223571   -0.202402    0.000000

siesta: Stress tensor (static) (eV/Ang**3):
siesta:    -0.496038    0.000600    0.000000
siesta:     0.000599   -1.695427    0.000000
siesta:     0.000000    0.000000   -0.000411

siesta: Cell volume =       1893.226884 Ang**3

siesta: Pressure (static):
siesta:                Solid            Molecule  Units
siesta:           0.00795744          0.11384674  Ry/Bohr**3
siesta:           0.73062547         10.45302093  eV/Ang**3
siesta:        1170.60370586      16747.76690725  kBar
(Free)E+ p_basis*V_orbitals  =       -9269.211656
(Free)Eharris+ p_basis*V_orbitals  =       -9269.218452

siesta: Electric dipole (a.u.)  =    0.000000    0.000000    0.000000
siesta: Electric dipole (Debye) =    0.000000    0.000000    0.000000

* Maximum dynamic memory allocated : Node    0 =   238 MB
* Maximum dynamic memory allocated : Node    1 =    84 MB
* Maximum dynamic memory allocated : Node    2 =    85 MB
* Maximum dynamic memory allocated : Node    3 =   226 MB
* Maximum dynamic memory allocated : Node    4 =   227 MB
* Maximum dynamic memory allocated : Node    5 =    82 MB
* Maximum dynamic memory allocated : Node    6 =    85 MB
* Maximum dynamic memory allocated : Node    7 =   210 MB

* Maximum memory occured during matrixMtoO                    

timer: CPU execution times:
timer:  Routine       Calls   Time/call    Tot.time        %
timer:  siesta            1  131161.435  131161.435   100.00
timer:  Setup             1       2.682       2.682     0.00
timer:  bands             3     243.544     730.631     0.56
timer:  writewave         1       0.020       0.020     0.00
timer:  KSV_init          1       0.000       0.000     0.00
timer:  IterMD            1  130422.906  130422.906    99.44
timer:  hsparse           1       0.517       0.517     0.00
timer:  overlap           1       7.201       7.201     0.01
timer:  IterSCF          38    3426.855  130220.496    99.28
timer:  kinefsm           2       3.745       7.490     0.01
timer:  nlefsm            2      19.925      39.851     0.03
timer:  DHSCF            39     103.485    4035.899     3.08
timer:  DHSCF1            1       0.990       0.990     0.00
timer:  DHSCF2            1      42.215      42.215     0.03
timer:  REORD           314       0.005       1.549     0.00
timer:  POISON           40       0.874      34.956     0.03
timer:  DHSCF3           39     101.334    3952.026     3.01
timer:  rhoofd           39      23.029     898.127     0.68
timer:  cellXC           39       3.418     133.294     0.10
timer:  vmat             39      47.493    1852.210     1.41
timer:  MolMec            2       0.001       0.001     0.00
timer:  diagon           38    3322.767  126265.153    96.27
timer:  c-eigval       8899       6.020   53570.127    40.84
timer:  c-buildHS      8899       0.053     469.676     0.36
timer:  cdiag         17677       6.165  108977.559    83.09
timer:  cdiag1        17677       0.386    6815.128     5.20
timer:  cdiag2        17677       1.766   31217.213    23.80
timer:  cdiag3        17677       3.723   65810.097    50.17
timer:  cdiag4        17677       0.158    2800.020     2.13
timer:  c-eigvec       8778       6.411   56273.071    42.90
timer:  c-buildD       8778       1.949   17106.674    13.04
timer:  DHSCF4            1      39.928      39.928     0.03
timer:  dfscf             1      37.155      37.155     0.03
timer:  overfsm           1       0.452       0.452     0.00
timer:  optical           1       4.555       4.555     0.00
  

elaps: ELAPSED times:
elaps:  Routine       Calls   Time/call    Tot.time        %
elaps:  siesta            1   16426.687   16426.687   100.00
elaps:  Setup             1       0.337       0.337     0.00
elaps:  bands             3      30.519      91.556     0.56
elaps:  writewave         1       0.002       0.002     0.00
elaps:  KSV_init          1       0.000       0.000     0.00
elaps:  IterMD            1   16334.193   16334.193    99.44
elaps:  hsparse           1       0.069       0.069     0.00
elaps:  overlap           1       0.906       0.906     0.01
elaps:  IterSCF          38     429.180   16308.842    99.28
elaps:  kinefsm           2       0.472       0.943     0.01
elaps:  nlefsm            2       2.510       5.020     0.03
elaps:  DHSCF            39      13.085     510.330     3.11
elaps:  DHSCF1            1       0.126       0.126     0.00
elaps:  DHSCF2            1       5.286       5.286     0.03
elaps:  REORD           314       0.001       0.208     0.00
elaps:  POISON           40       0.111       4.423     0.03
elaps:  DHSCF3           39      12.692     494.984     3.01
elaps:  rhoofd           39       6.172     240.696     1.47
elaps:  cellXC           39       0.428      16.689     0.10
elaps:  vmat             39       5.948     231.982     1.41
elaps:  MolMec            2       0.000       0.000     0.00
elaps:  diagon           38     416.154   15813.843    96.27
elaps:  c-eigval       8899       0.754    6709.002    40.84
elaps:  c-buildHS      8899       0.007      63.610     0.39
elaps:  cdiag         17677       0.767   13549.810    82.49
elaps:  cdiag1        17677       0.048     850.478     5.18
elaps:  cdiag2        17677       0.221    3910.544    23.81
elaps:  cdiag3        17677       0.467    8252.802    50.24
elaps:  cdiag4        17677       0.020     346.463     2.11
elaps:  c-eigvec       8778       0.793    6957.986    42.36
elaps:  c-buildD       8778       0.254    2230.599    13.58
elaps:  DHSCF4            1       9.848       9.848     0.06
elaps:  dfscf             1       9.300       9.300     0.06
elaps:  overfsm           1       0.058       0.058     0.00
elaps:  optical           1       0.000       0.000     0.00
  
>> End of run:  30-APR-2016  11:38:18
