Siesta Version:                                        siesta-3.2-pl-3
Architecture  : x86_64-unknown-linux-gnu--unknown
Compiler flags: mpiifort -g -O2 -fPIC -xSSE4.1 -fp-model source -shared-intel 
PARALLEL version

* Running on   12 nodes in parallel
>> Start of run:   4-MAY-2016   4:16:19

                           ***********************       
                           *  WELCOME TO SIESTA  *       
                           ***********************       

reinit: Reading from standard input
************************** Dump of input data file ****************************
#(1) General system descriptors
SystemName            GRP_doping    # Descriptive name of the system
SystemLabel           GRP_doping    # Short name for naming files
%include STRUCT.fdf
%include KPT.fdf
%include BASIS.fdf
#%include TS.fdf # for transiesta calculation
#(4) DFT, Grid, SCF
XC.functional         GGA           # LDA or GGA (default = LDA)
XC.authors            PBE           # CA (Ceperley-Aldr) = PZ
                                    #    (Perdew-Zunger) - LDA - Default
                                    # PW92 (Perdew-Wang-92) - LDA
                                    # PBE (Perdew-Burke-Ernzerhof) - GGA
MeshCutoff            200.000000    Ry      # Default: 50.0 Ry ~ 0.444 Bohr
                                    #         100.0 Ry ~ 0.314 Bohr
MaxSCFIterations      500           # Default: 50
DM.MixingWeight       0.05          # Default: 0.25
DM.NumberPulay        10            # Default: 0
DM.PulayOnFile        F             # SystemLabel.P1, SystemLabel.P2
DM.Tolerance          1.d-4         # Default: 1.d-4
DM.UseSaveDM          .true.        # because of the bug
SCFMustConverge       .true.
NeglNonOverlapInt     F             # Default: F
#(5) Eigenvalue problem: order-N or diagonalization
SolutionMethod        Diagon        # or Transiesta
ElectronicTemperature 300.0 K       # Default: 300.0 K
#(6) Molecular dynamics and relaxations
#MD.TypeOfRun          CG            # Type of dynamics:
#MD.VariableCell       F
#MD.NumCGsteps         0           # 0 for single-point / 100 for gopt
#MD.MaxCGDispl         0.2 Bohr      # Default: 0.2 Bohr
#MD.MaxForceTol        0.02 eV/Ang   # Default: 0.04 eV/Ang
#MD.MaxStressTol       1.0 GPa       # Default: 1.0 GPa
# Geometry Constraints
#%block GeometryConstraints
#	position from 1 to 44
#%endblock GeometryConstraints
BandLinesScale   pi/a
%block BandLines
 1   0.00000000  0.00000000  0.00000000
50   0.00000000  0.07809418  0.00000000
50   0.04509075  0.07809242  0.00000000
20   0.00000000  0.00000000  0.00000000
%endblock BandLines
************************** End of input data file *****************************

reinit: -----------------------------------------------------------------------
reinit: System Name: GRP_doping
reinit: -----------------------------------------------------------------------
reinit: System Label: GRP_doping                                                  
reinit: -----------------------------------------------------------------------

initatom: Reading input for the pseudopotentials and atomic orbitals ----------
 Species number:            1  Label: B Atomic number:           5
 Species number:            2  Label: C Atomic number:           6
Ground state valence configuration:   2s02  2p01
Reading pseudopotential information in formatted form from B.psf

Valence configuration for pseudopotential generation:
2s( 2.00) rc: 1.74
2p( 1.00) rc: 1.74
3d( 0.00) rc: 1.74
4f( 0.00) rc: 1.74
Ground state valence configuration:   2s02  2p02
Reading pseudopotential information in formatted form from C.psf

Valence configuration for pseudopotential generation:
2s( 2.00) rc: 1.54
2p( 2.00) rc: 1.54
3d( 0.00) rc: 1.54
4f( 0.00) rc: 1.54
For B, standard SIESTA heuristics set lmxkb to 3
 (one more than the basis l, including polarization orbitals).
Use PS.lmax or PS.KBprojectors blocks to override.
For C, standard SIESTA heuristics set lmxkb to 3
 (one more than the basis l, including polarization orbitals).
Use PS.lmax or PS.KBprojectors blocks to override.

<basis_specs>
===============================================================================
B                    Z=   5    Mass=  10.810        Charge= 0.17977+309
Lmxo=1 Lmxkb= 3    BasisType=split      Semic=F
L=0  Nsemic=0  Cnfigmx=2
          n=1  nzeta=2  polorb=0
            splnorm:   0.15000    
               vcte:    0.0000    
               rinn:    0.0000    
                rcs:    0.0000      0.0000    
            lambdas:    1.0000      1.0000    
L=1  Nsemic=0  Cnfigmx=2
          n=1  nzeta=2  polorb=1
            splnorm:   0.15000    
               vcte:    0.0000    
               rinn:    0.0000    
                rcs:    0.0000      0.0000    
            lambdas:    1.0000      1.0000    
-------------------------------------------------------------------------------
L=0  Nkbl=1  erefs: 0.17977+309
L=1  Nkbl=1  erefs: 0.17977+309
L=2  Nkbl=1  erefs: 0.17977+309
L=3  Nkbl=1  erefs: 0.17977+309
===============================================================================
</basis_specs>

atom: Called for B                     (Z =   5)

read_vps: Pseudopotential generation method:
read_vps: ATM3      Troullier-Martins                       
Total valence charge:    3.00000

read_vps: Pseudopotential includes a core correction:
read_vps: Pseudo-core for xc-correction

xc_check: Exchange-correlation functional:
xc_check: GGA Perdew, Burke & Ernzerhof 1996
V l=0 = -2*Zval/r beyond r=  1.7165
V l=1 = -2*Zval/r beyond r=  1.7165
V l=2 = -2*Zval/r beyond r=  1.7165
V l=3 = -2*Zval/r beyond r=  1.6951
All V_l potentials equal beyond r=  1.7165
This should be close to max(r_c) in ps generation
All pots = -2*Zval/r beyond r=  1.7165

VLOCAL1: 99.0% of the norm of Vloc inside     14.733 Ry
VLOCAL1: 99.9% of the norm of Vloc inside     33.577 Ry
atom: Maximum radius for 4*pi*r*r*local-pseudopot. charge    2.04484
atom: Maximum radius for r*vlocal+2*Zval:    1.75994
GHOST: No ghost state for L =  0
GHOST: No ghost state for L =  1
GHOST: No ghost state for L =  2
GHOST: No ghost state for L =  3

KBgen: Kleinman-Bylander projectors: 
   l= 0   rc=  1.897051   el= -0.693730   Ekb=  4.595746   kbcos=  0.286105
   l= 1   rc=  1.920920   el= -0.265236   Ekb= -2.350715   kbcos= -0.315747
   l= 2   rc=  2.044840   el=  0.002055   Ekb= -0.690767   kbcos= -0.013822
   l= 3   rc=  2.149707   el=  0.003188   Ekb= -0.315358   kbcos= -0.002055

KBgen: Total number of  Kleinman-Bylander projectors:   16
atom: -------------------------------------------------------------------------

atom: SANKEY-TYPE ORBITALS:
atom: Selected multiple-zeta basis: split     

SPLIT: Orbitals with angular momentum L= 0

SPLIT: Basis orbitals for state 2s

SPLIT: PAO cut-off radius determined from an
SPLIT: energy shift=  0.007350 Ry

   izeta = 1
                 lambda =    1.000000
                     rc =    5.422032
                 energy =   -0.686029
                kinetic =    0.576707
    potential(screened) =   -1.262736
       potential(ionic) =   -3.271094

   izeta = 2
                 rmatch =    4.222573
              splitnorm =    0.150000
                 energy =   -0.602132
                kinetic =    0.858975
    potential(screened) =   -1.461107
       potential(ionic) =   -3.582536

SPLIT: Orbitals with angular momentum L= 1

SPLIT: Basis orbitals for state 2p

SPLIT: PAO cut-off radius determined from an
SPLIT: energy shift=  0.007350 Ry

   izeta = 1
                 lambda =    1.000000
                     rc =    6.790259
                 energy =   -0.258578
                kinetic =    1.481412
    potential(screened) =   -1.739989
       potential(ionic) =   -3.657461

   izeta = 2
                 rmatch =    4.608740
              splitnorm =    0.150000
                 energy =   -0.173757
                kinetic =    2.186690
    potential(screened) =   -2.360447
       potential(ionic) =   -4.464260

POLgen: Perturbative polarization orbital with L=  2

POLgen: Polarization orbital for state 2p

   izeta = 1
                     rc =    6.790259
                 energy =    0.684082
                kinetic =    1.471481
    potential(screened) =   -0.787399
       potential(ionic) =   -2.406985
atom: Total number of Sankey-type orbitals: 13

atm_pop: Valence configuration (for local Pseudopot. screening):
 2s( 2.00)                                                            
 2p( 1.00)                                                            
Vna: chval, zval:    3.00000   3.00000

Vna:  Cut-off radius for the neutral-atom potential:   6.790259
comcore: Pseudo-core radius Rcore=  2.122997

atom: _________________________________________________________________________

<basis_specs>
===============================================================================
C                    Z=   6    Mass=  12.010        Charge= 0.17977+309
Lmxo=1 Lmxkb= 3    BasisType=split      Semic=F
L=0  Nsemic=0  Cnfigmx=2
          n=1  nzeta=2  polorb=0
            splnorm:   0.15000    
               vcte:    0.0000    
               rinn:    0.0000    
                rcs:    0.0000      0.0000    
            lambdas:    1.0000      1.0000    
L=1  Nsemic=0  Cnfigmx=2
          n=1  nzeta=2  polorb=1
            splnorm:   0.15000    
               vcte:    0.0000    
               rinn:    0.0000    
                rcs:    0.0000      0.0000    
            lambdas:    1.0000      1.0000    
-------------------------------------------------------------------------------
L=0  Nkbl=1  erefs: 0.17977+309
L=1  Nkbl=1  erefs: 0.17977+309
L=2  Nkbl=1  erefs: 0.17977+309
L=3  Nkbl=1  erefs: 0.17977+309
===============================================================================
</basis_specs>

atom: Called for C                     (Z =   6)

read_vps: Pseudopotential generation method:
read_vps: ATM3      Troullier-Martins                       
Total valence charge:    4.00000

read_vps: Pseudopotential includes a core correction:
read_vps: Pseudo-core for xc-correction

xc_check: Exchange-correlation functional:
xc_check: GGA Perdew, Burke & Ernzerhof 1996
V l=0 = -2*Zval/r beyond r=  1.5227
V l=1 = -2*Zval/r beyond r=  1.5227
V l=2 = -2*Zval/r beyond r=  1.5227
V l=3 = -2*Zval/r beyond r=  1.5038
All V_l potentials equal beyond r=  1.5227
This should be close to max(r_c) in ps generation
All pots = -2*Zval/r beyond r=  1.5227

VLOCAL1: 99.0% of the norm of Vloc inside     18.722 Ry
VLOCAL1: 99.9% of the norm of Vloc inside     42.668 Ry
atom: Maximum radius for 4*pi*r*r*local-pseudopot. charge    1.83678
atom: Maximum radius for r*vlocal+2*Zval:    1.58088
GHOST: No ghost state for L =  0
GHOST: No ghost state for L =  1
GHOST: No ghost state for L =  2
GHOST: No ghost state for L =  3

KBgen: Kleinman-Bylander projectors: 
   l= 0   rc=  1.704034   el= -1.009801   Ekb=  5.335044   kbcos=  0.316824
   l= 1   rc=  1.704034   el= -0.388707   Ekb= -3.785862   kbcos= -0.366464
   l= 2   rc=  1.791422   el=  0.001971   Ekb= -0.970471   kbcos= -0.009212
   l= 3   rc=  1.859892   el=  0.003065   Ekb= -0.399525   kbcos= -0.001223

KBgen: Total number of  Kleinman-Bylander projectors:   16
atom: -------------------------------------------------------------------------

atom: SANKEY-TYPE ORBITALS:
atom: Selected multiple-zeta basis: split     

SPLIT: Orbitals with angular momentum L= 0

SPLIT: Basis orbitals for state 2s

SPLIT: PAO cut-off radius determined from an
SPLIT: energy shift=  0.007350 Ry

   izeta = 1
                 lambda =    1.000000
                     rc =    4.632753
                 energy =   -1.002270
                kinetic =    0.855760
    potential(screened) =   -1.858031
       potential(ionic) =   -5.417575

   izeta = 2
                 rmatch =    3.431921
              splitnorm =    0.150000
                 energy =   -0.867111
                kinetic =    1.300804
    potential(screened) =   -2.167915
       potential(ionic) =   -5.962684

SPLIT: Orbitals with angular momentum L= 1

SPLIT: Basis orbitals for state 2p

SPLIT: PAO cut-off radius determined from an
SPLIT: energy shift=  0.007350 Ry

   izeta = 1
                 lambda =    1.000000
                     rc =    5.658549
                 energy =   -0.381140
                kinetic =    2.399701
    potential(screened) =   -2.780841
       potential(ionic) =   -6.206085

   izeta = 2
                 rmatch =    3.653288
              splitnorm =    0.150000
                 energy =   -0.249149
                kinetic =    3.542762
    potential(screened) =   -3.791911
       potential(ionic) =   -7.581078

POLgen: Perturbative polarization orbital with L=  2

POLgen: Polarization orbital for state 2p

   izeta = 1
                     rc =    5.658549
                 energy =    1.109913
                kinetic =    2.304789
    potential(screened) =   -1.194876
       potential(ionic) =   -4.013592
atom: Total number of Sankey-type orbitals: 13

atm_pop: Valence configuration (for local Pseudopot. screening):
 2s( 2.00)                                                            
 2p( 2.00)                                                            
Vna: chval, zval:    4.00000   4.00000

Vna:  Cut-off radius for the neutral-atom potential:   5.658549
comcore: Pseudo-core radius Rcore=  1.791422

atom: _________________________________________________________________________

prinput: Basis input ----------------------------------------------------------

PAO.BasisType split     

%block ChemicalSpeciesLabel
    1    5 B                       # Species index, atomic number, species label
    2    6 C                       # Species index, atomic number, species label
%endblock ChemicalSpeciesLabel

%block PAO.Basis                 # Define Basis set
B                     2                    # Species label, number of l-shells
 n=2   0   2                         # n, l, Nzeta 
   5.422      4.223   
   1.000      1.000   
 n=2   1   2 P   1                   # n, l, Nzeta, Polarization, NzetaPol
   6.790      4.609   
   1.000      1.000   
C                     2                    # Species label, number of l-shells
 n=2   0   2                         # n, l, Nzeta 
   4.633      3.432   
   1.000      1.000   
 n=2   1   2 P   1                   # n, l, Nzeta, Polarization, NzetaPol
   5.659      3.653   
   1.000      1.000   
%endblock PAO.Basis

prinput: ----------------------------------------------------------------------

coor:   Atomic-coordinates input format  =     Fractional

siesta: Atomic coordinates (Bohr) and species
siesta:     -4.68258  18.72698   0.00000  1        1
siesta:     -2.35420  22.75985   0.00000  1        2
siesta:     -7.01096  22.75985   0.00000  1        3
siesta:     -0.02582  26.79272   0.00000  1        4
siesta:     -4.68258  26.79272   0.00000  1        5
siesta:      2.30256  30.82560   0.00000  1        6
siesta:     -2.35420  30.82560   0.00000  1        7
siesta:     -0.02582  34.85847   0.00000  1        8
siesta:     -0.02582   2.59549   0.00000  2        9
siesta:     -0.02582   5.28395   0.00000  2       10
siesta:     -2.35420  38.89134   0.00000  2       11
siesta:     -2.35420  41.57980   0.00000  2       12
siesta:      2.30256  38.89134   0.00000  2       13
siesta:      2.30256  41.57980   0.00000  2       14
siesta:      4.63094  34.85847   0.00000  2       15
siesta:      4.63094  37.54693   0.00000  2       16
siesta:      6.95932  30.82560   0.00000  2       17
siesta:      6.95932  33.51406   0.00000  2       18
siesta:      9.28770  26.79272   0.00000  2       19
siesta:      9.28770  29.48119   0.00000  2       20
siesta:     -4.68258  34.85847   0.00000  2       21
siesta:     -4.68258  37.54693   0.00000  2       22
siesta:      2.30256   6.62836   0.00000  2       23
siesta:      2.30256   9.31683   0.00000  2       24
siesta:      4.63094  10.66124   0.00000  2       25
siesta:      4.63094  13.34970   0.00000  2       26
siesta:      6.95932  14.69411   0.00000  2       27
siesta:      6.95932  17.38257   0.00000  2       28
siesta:      9.28770  18.72698   0.00000  2       29
siesta:      9.28770  21.41544   0.00000  2       30
siesta:     11.61608  22.75985   0.00000  2       31
siesta:     11.61608  25.44831   0.00000  2       32
siesta:     -2.35420   6.62836   0.00000  2       33
siesta:     -2.35420   9.31683   0.00000  2       34
siesta:     -0.02582  10.66124   0.00000  2       35
siesta:     -0.02582  13.34970   0.00000  2       36
siesta:      2.30256  14.69411   0.00000  2       37
siesta:      2.30256  17.38257   0.00000  2       38
siesta:      4.63094  18.72698   0.00000  2       39
siesta:      4.63094  21.41544   0.00000  2       40
siesta:      6.95932  22.75985   0.00000  2       41
siesta:      6.95932  25.44831   0.00000  2       42
siesta:     -4.68258  10.66124   0.00000  2       43
siesta:     -4.68258  13.34970   0.00000  2       44
siesta:     -2.35420  14.69411   0.00000  2       45
siesta:     -2.35420  17.38257   0.00000  2       46
siesta:     -0.02582  18.72698   0.00000  2       47
siesta:     -0.02582  21.41544   0.00000  2       48
siesta:      2.30256  22.75985   0.00000  2       49
siesta:      2.30256  25.44831   0.00000  2       50
siesta:     -7.01096  14.69411   0.00000  2       51
siesta:     -7.01096  17.38257   0.00000  2       52
siesta:     -4.68258  21.41544   0.00000  2       53
siesta:     -2.35420  25.44831   0.00000  2       54
siesta:     -9.33934  18.72698   0.00000  2       55
siesta:     -9.33934  21.41544   0.00000  2       56
siesta:     -7.01096  25.44831   0.00000  2       57
siesta:    -11.66772  22.75985   0.00000  2       58
siesta:    -11.66772  25.44831   0.00000  2       59
siesta:     -9.33934  26.79272   0.00000  2       60
siesta:     -9.33934  29.48119   0.00000  2       61
siesta:      4.63094  26.79272   0.00000  2       62
siesta:      4.63094  29.48119   0.00000  2       63
siesta:     -0.02582  29.48119   0.00000  2       64
siesta:     -4.68258  29.48119   0.00000  2       65
siesta:      2.30256  33.51406   0.00000  2       66
siesta:     -2.35420  33.51406   0.00000  2       67
siesta:     -7.01096  30.82560   0.00000  2       68
siesta:     -7.01096  33.51406   0.00000  2       69
siesta:     -0.02582  37.54693   0.00000  2       70
siesta:     -0.02582  42.92421   0.00000  2       71
siesta:     -0.02582  45.61267   0.00000  2       72

siesta: System type = slab      

initatomlists: Number of atoms, orbitals, and projectors:     72   936  1152

siesta: ******************** Simulation parameters ****************************
siesta:
siesta: The following are some of the parameters of the simulation.
siesta: A complete list of the parameters used, including default values,
siesta: can be found in file out.fdf
siesta:
redata: Non-Collinear-spin run           =     F
redata: SpinPolarized (Up/Down) run      =     F
redata: Number of spin components        =     1
redata: Long output                      =     F
redata: Number of Atomic Species         =        2
redata: Charge density info will appear in .RHO file
redata: Write Mulliken Pop.              =     NO
redata: Mesh Cutoff                      =   200.0000  Ry
redata: Net charge of the system         =     0.0000 |e|
redata: Max. number of SCF Iter          =      500
redata: SCF convergence failure will abort job
redata: Performing Pulay mixing using    =    10 iterations
redata: Mix DM in first SCF step ?       =     F
redata: Write Pulay info on disk?        =     F
redata: Discard 1st Pulay DM after  kick =     F
redata: New DM Mixing Weight             =     0.0500
redata: New DM Occupancy tolerance       = 0.000000000001
redata: No kicks to SCF
redata: DM Mixing Weight for Kicks       =     0.5000
redata: DM Tolerance for SCF             =     0.000100
redata: Require Energy convergence for SCF =     F
redata: DM Energy tolerance for SCF      =     0.000100 eV
redata: Require Harris convergence for SCF =     F
redata: DM Harris energy tolerance for SCF =     0.000100 eV
redata: Using Saved Data (generic)   =     F
redata: Use continuation files for DM    =     T
redata: Neglect nonoverlap interactions  =     F
redata: Method of Calculation            =     Diagonalization
redata: Divide and Conquer               =     T
redata: Electronic Temperature           =     0.0019  Ry
redata: Fix the spin of the system       =     F
redata: Dynamics option                  =     Verlet MD run
redata: Initial MD time step             =        1
redata:   Final MD time step             =        1
redata: Length of MD time step           =     1.0000  fs
redata: Initial Temperature of MD run    =     0.0000  K
redata: Perform a MD quench              =     F
redata: ***********************************************************************
Total number of electrons:   280.000000
Total ionic charge:   280.000000

* ProcessorY, Blocksize:    3  24

k-point displ. along   1 input, could be:     0.50    0.00
k-point displ. along   2 input, could be:     0.50    0.00
 Kpoints in:          231 . Kpoints trimmed:          231

siesta: k-grid: Number of k-points =   231
siesta: k-grid: Cutoff (effective) =     5.000 Ang
siesta: k-grid: Supercell and displacements
siesta: k-grid:   21   0   0      0.500
siesta: k-grid:    0  21   0      0.500
siesta: k-grid:    0   0   1      0.000
Naive supercell factors:     2    2    2

superc: Internal auxiliary supercell:     2 x     2 x     2  =       8
superc: Number of atoms, orbitals, and projectors:    576   7488   9216

* Maximum dynamic memory allocated =     4 MB

siesta:                 ==============================
                            Begin MD step =      1
                        ==============================

superc: Internal auxiliary supercell:     2 x     2 x     2  =       8
superc: Number of atoms, orbitals, and projectors:    576   7488   9216

outcell: Unit cell vectors (Ang):
       12.804619    7.392750    0.000000
        0.000000   14.785500    0.000000
        0.000000    0.000000   10.000000

outcell: Cell vector modules (Ang)   :   14.785500   14.785500   10.000000
outcell: Cell angles (23,13,12) (deg):     90.0000     90.0000     60.0000
outcell: Cell volume (Ang**3)        :   1893.2269
New_DM. Step:     1
Initializing Density Matrix...

InitMesh: MESH =   120 x   120 x    90 =     1296000
InitMesh: Mesh cutoff (required, used) =   200.000   223.865 Ry

* Maximum dynamic memory allocated =   152 MB

stepf: Fermi-Dirac step function

siesta: Program's energy decomposition (eV):
siesta: Ebs     =     -5783.500886
siesta: Eions   =     17378.557381
siesta: Ena     =      4537.626396
siesta: Ekin    =      5956.271858
siesta: Enl     =       700.859919
siesta: DEna    =        -0.000013
siesta: DUscf   =         0.000000
siesta: DUext   =         0.000000
siesta: Exc     =     -4181.679250
siesta: eta*DQ  =         0.000000
siesta: Emadel  =         0.000000
siesta: Emeta   =         0.000000
siesta: Emolmec =         0.000000
siesta: Ekinion =         0.000000
siesta: Eharris =    -10078.472775
siesta: Etot    =    -10365.478471
siesta: FreeEng =    -10365.478471

siesta: iscf   Eharris(eV)      E_KS(eV)   FreeEng(eV)   dDmax  Ef(eV)
siesta:    1   -10078.4728   -10365.4785   -10365.4785  6.7336 -7.9487
timer: Routine,Calls,Time,% = IterSCF        1    3047.198  99.59
elaps: Routine,Calls,Wall,% = IterSCF        1     254.536  99.59
siesta:    2   -14101.6492    -9430.8437    -9430.8763 16.7607 -2.7144
siesta:    3   -10027.6323   -10194.5157   -10194.5599  3.0075 -6.2956
siesta:    4   -10002.6105   -10059.7046   -10059.7046  1.2088 -5.1394
siesta:    5    -9951.6677   -10024.7539   -10024.7697  0.9736 -5.3060
siesta:    6    -9938.5514    -9966.7858    -9966.8647  0.7490 -4.9927
siesta:    7    -9933.8858    -9958.8230    -9958.8420  0.7007 -4.9679
siesta:    8    -9929.9714    -9946.9576    -9946.9782  0.6017 -5.1017
siesta:    9    -9928.3356    -9931.3600    -9931.4169  0.4853 -5.0059
siesta:   10    -9932.2993    -9911.4152    -9911.4753  0.5179 -4.9240
siesta:   11    -9929.2737    -9910.0713    -9910.1146  0.3316 -4.9261
siesta:   12    -9928.0760    -9905.8195    -9905.9260  0.1988 -4.8856
siesta:   13    -9928.3258    -9900.6773    -9900.7226  0.1860 -4.7933
siesta:   14    -9927.5661    -9905.0161    -9905.0373  0.1396 -4.8318
siesta:   15    -9926.9612    -9910.1781    -9910.2112  0.1774 -5.0089
siesta:   16    -9926.7864    -9911.8587    -9911.9256  0.1120 -4.9355
siesta:   17    -9926.7227    -9915.1749    -9915.2242  0.0865 -4.9452
siesta:   18    -9926.6367    -9918.7386    -9918.7800  0.0670 -4.9498
siesta:   19    -9926.5654    -9922.0508    -9922.0890  0.0521 -4.9636
siesta:   20    -9926.5506    -9922.6601    -9922.7064  0.0461 -4.9660
siesta:   21    -9926.5306    -9924.8558    -9924.9042  0.0352 -4.9640
siesta:   22    -9926.5306    -9926.1092    -9926.1565  0.0275 -4.9652
siesta:   23    -9926.5276    -9926.4325    -9926.4809  0.0207 -4.9628
siesta:   24    -9926.5200    -9926.6559    -9926.7031  0.0132 -4.9668
siesta:   25    -9926.5212    -9926.6260    -9926.6777  0.0120 -4.9623
siesta:   26    -9926.5192    -9926.7817    -9926.8311  0.0070 -4.9645
siesta:   27    -9926.5199    -9926.8866    -9926.9375  0.0038 -4.9646
siesta:   28    -9926.5189    -9926.8361    -9926.8860  0.0028 -4.9664
siesta:   29    -9926.5188    -9926.6665    -9926.7172  0.0019 -4.9670
siesta:   30    -9926.5187    -9926.5856    -9926.6364  0.0017 -4.9667
siesta:   31    -9926.5188    -9926.5647    -9926.6155  0.0013 -4.9665
siesta:   32    -9926.5189    -9926.5200    -9926.5706  0.0007 -4.9663
siesta:   33    -9926.5189    -9926.4991    -9926.5497  0.0004 -4.9662
siesta:   34    -9926.5188    -9926.5065    -9926.5571  0.0003 -4.9661
siesta:   35    -9926.5188    -9926.5126    -9926.5633  0.0003 -4.9661
siesta:   36    -9926.5188    -9926.5172    -9926.5679  0.0002 -4.9661
siesta:   37    -9926.5188    -9926.5190    -9926.5697  0.0001 -4.9662
siesta:   38    -9926.5188    -9926.5185    -9926.5692  0.0001 -4.9662

siesta: E_KS(eV) =            -9926.5195

siesta: E_KS - E_eggbox =     -9926.5195

siesta: Atomic forces (eV/Ang):
----------------------------------------
   Tot   -0.085807   -0.039811    0.000000
----------------------------------------
   Max  563.044656
   Res  161.170269    sqrt( Sum f_i^2 / 3N )
----------------------------------------
   Max  563.044656    constrained

Stress-tensor-Voigt (kbar):     -755.71    -2841.48       -0.39        0.52        0.00        0.00
(Free)E + p*V (eV/cell)    -8509.5477
Target enthalpy (eV/cell)    -9926.5702

siesta: Stress tensor (static) (eV/Ang**3):
        -0.471671    0.000325    0.000000
         0.000325   -1.773491    0.000000
         0.000000    0.000000   -0.000246

siesta: Pressure (static):       1199.19327759  kBar

siesta: Stress tensor (total) (eV/Ang**3):
        -0.471671    0.000325    0.000000
         0.000325   -1.773491    0.000000
         0.000000    0.000000   -0.000246

siesta: Pressure (total):       1199.19327759  kBar

siesta: Temp_ion =       0.000 K

* Maximum dynamic memory allocated =   165 MB
Computing bands...

siesta: Program's energy decomposition (eV):
siesta: Ebs     =     -4434.615456
siesta: Eions   =     17378.557381
siesta: Ena     =      4537.626396
siesta: Ekin    =      8918.450404
siesta: Enl     =      -951.610373
siesta: DEna    =      -803.113125
siesta: DUscf   =       107.113717
siesta: DUext   =         0.000000
siesta: Exc     =     -4356.429188
siesta: eta*DQ  =         0.000000
siesta: Emadel  =         0.000000
siesta: Emeta   =         0.000000
siesta: Emolmec =         0.000000
siesta: Ekinion =         0.000000
siesta: Eharris =     -9926.518788
siesta: Etot    =     -9926.519550
siesta: FreeEng =     -9926.570241

siesta: Final energy (eV):
siesta:  Band Struct. =   -4434.615456
siesta:       Kinetic =    8918.450404
siesta:       Hartree =   29005.957279
siesta:    Ext. field =       0.000000
siesta:   Exch.-corr. =   -4356.429188
siesta:  Ion-electron =  -66627.388673
siesta:       Ion-ion =   23132.890629
siesta:       Ekinion =       0.000000
siesta:         Total =   -9926.519550

siesta: Atomic forces (eV/Ang):
siesta:      1    1.000343    0.997938    0.000000
siesta:      2    0.028804   -0.282458    0.000000
siesta:      3    0.971828    0.405216    0.000000
siesta:      4   -1.024976   -1.807167    0.000000
siesta:      5    0.490626   -0.600291    0.000000
siesta:      6   19.618483    2.833691    0.000000
siesta:      7  -20.186251    2.524822    0.000000
siesta:      8    0.163375  113.896137    0.000000
siesta:      9   -0.252615  548.377034    0.000000
siesta:     10   -0.699394 -135.905502    0.000000
siesta:     11    2.378607  127.111215    0.000000
siesta:     12  -18.287814 -547.127483    0.000000
siesta:     13   -2.198394  127.247665    0.000000
siesta:     14   16.491110 -548.716803    0.000000
siesta:     15   26.658452    3.430378    0.000000
siesta:     16   32.190285 -548.012619    0.000000
siesta:     17    2.745602   -0.268930    0.000000
siesta:     18   -2.403228    2.247788    0.000000
siesta:     19    2.412031    1.235923    0.000000
siesta:     20   -1.105861    1.276869    0.000000
siesta:     21  -26.733601    3.844055    0.000000
siesta:     22  -32.454802 -548.246103    0.000000
siesta:     23   22.163234  552.839897    0.000000
siesta:     24   -3.836688 -130.694877    0.000000
siesta:     25   34.510091  548.453507    0.000000
siesta:     26   26.823953   -5.637928    0.000000
siesta:     27   -2.568495   -2.003340    0.000000
siesta:     28    1.798288   -0.129985    0.000000
siesta:     29   -0.883308   -0.424320    0.000000
siesta:     30    2.567488   -1.870411    0.000000
siesta:     31   -0.379564    7.200108    0.000000
siesta:     32   -0.490869   -7.140862    0.000000
siesta:     33  -22.403317  552.767155    0.000000
siesta:     34    3.813915 -130.646439    0.000000
siesta:     35   -0.656831  553.870603    0.000000
siesta:     36    0.759462 -130.290803    0.000000
siesta:     37   22.250510  557.287594    0.000000
siesta:     38   21.887715   -6.074287    0.000000
siesta:     39   -0.777148    2.510180    0.000000
siesta:     40    0.472040   -0.594920    0.000000
siesta:     41   -0.339795    0.644499    0.000000
siesta:     42    0.029517   -0.788202    0.000000
siesta:     43  -34.027129  548.588413    0.000000
siesta:     44  -26.553721   -6.011990    0.000000
siesta:     45  -22.046684  556.295585    0.000000
siesta:     46  -19.397419   -6.775755    0.000000
siesta:     47    0.139636  563.044656    0.000000
siesta:     48    3.315942   -0.962694    0.000000
siesta:     49   -0.409216   -0.612850    0.000000
siesta:     50    3.046404   -1.114331    0.000000
siesta:     51    2.574980   -1.182839    0.000000
siesta:     52   -6.369076   -3.254264    0.000000
siesta:     53    0.021662   -0.187756    0.000000
siesta:     54    1.349597    1.456467    0.000000
siesta:     55    2.018198   -0.012287    0.000000
siesta:     56   -7.374748   -3.976754    0.000000
siesta:     57   -3.341574    1.490369    0.000000
siesta:     58    0.788600    7.001141    0.000000
siesta:     59    0.045744   -7.008327    0.000000
siesta:     60   -2.744405    0.957679    0.000000
siesta:     61    1.925190    0.978645    0.000000
siesta:     62   -0.026616   -0.879863    0.000000
siesta:     63    0.073574   -1.662267    0.000000
siesta:     64    0.304760 -553.769027    0.000000
siesta:     65    0.177047    2.559208    0.000000
siesta:     66   18.431879 -548.142222    0.000000
siesta:     67  -17.446249 -548.280073    0.000000
siesta:     68   -3.256625    0.769786    0.000000
siesta:     69    2.308972    2.066021    0.000000
siesta:     70    0.385698 -545.149966    0.000000
siesta:     71    0.276450  129.890627    0.000000
siesta:     72    1.180513 -549.893687    0.000000
siesta: ----------------------------------------
siesta:    Tot   -0.085807   -0.039811    0.000000

siesta: Stress tensor (static) (eV/Ang**3):
siesta:    -0.471671    0.000325    0.000000
siesta:     0.000325   -1.773491    0.000000
siesta:     0.000000    0.000000   -0.000246

siesta: Cell volume =       1893.226884 Ang**3

siesta: Pressure (static):
siesta:                Solid            Molecule  Units
siesta:           0.00815179          0.12560098  Ry/Bohr**3
siesta:           0.74846948         11.53225460  eV/Ang**3
siesta:        1199.19327759      18476.90857857  kBar
(Free)E+ p_basis*V_orbitals  =       -9893.304995
(Free)Eharris+ p_basis*V_orbitals  =       -9893.305242

siesta: Electric dipole (a.u.)  =    0.000000    0.000000    0.000000
siesta: Electric dipole (Debye) =    0.000000    0.000000    0.000000

* Maximum dynamic memory allocated : Node    0 =   165 MB
* Maximum dynamic memory allocated : Node    1 =    66 MB
* Maximum dynamic memory allocated : Node    2 =    68 MB
* Maximum dynamic memory allocated : Node    3 =   151 MB
* Maximum dynamic memory allocated : Node    4 =   155 MB
* Maximum dynamic memory allocated : Node    5 =    57 MB
* Maximum dynamic memory allocated : Node    6 =    59 MB
* Maximum dynamic memory allocated : Node    7 =   147 MB
* Maximum dynamic memory allocated : Node    8 =   145 MB
* Maximum dynamic memory allocated : Node    9 =    58 MB
* Maximum dynamic memory allocated : Node   10 =    59 MB
* Maximum dynamic memory allocated : Node   11 =   139 MB

* Maximum memory occured during matrixMtoO                    

timer: CPU execution times:
timer:  Routine       Calls   Time/call    Tot.time        %
timer:  siesta            1  112911.840  112911.840   100.00
timer:  Setup             1       3.416       3.416     0.00
timer:  bands             3     226.303     678.908     0.60
timer:  writewave         1       0.022       0.022     0.00
timer:  KSV_init          1       0.004       0.004     0.00
timer:  IterMD            1  112222.576  112222.576    99.39
timer:  hsparse           1       0.281       0.281     0.00
timer:  overlap           1       6.023       6.023     0.01
timer:  IterSCF          38    2949.521  112081.802    99.26
timer:  kinefsm           2       3.067       6.135     0.01
timer:  nlefsm            2      19.704      39.409     0.03
timer:  DHSCF            39      74.333    2898.974     2.57
timer:  DHSCF1            1       1.192       1.192     0.00
timer:  DHSCF2            1      31.837      31.837     0.03
timer:  REORD           314       0.002       0.744     0.00
timer:  POISON           40       0.448      17.900     0.02
timer:  DHSCF3           39      72.821    2840.008     2.52
timer:  rhoofd           39      15.776     615.248     0.54
timer:  cellXC           39       2.434      94.942     0.08
timer:  vmat             39      32.733    1276.604     1.13
timer:  MolMec            2       0.000       0.000     0.00
timer:  diagon           38    2873.954  109210.245    96.72
timer:  c-eigval       8899       5.602   49850.813    44.15
timer:  c-buildHS      8899       0.035     310.355     0.27
timer:  cdiag         17677       5.701  100784.030    89.26
timer:  cdiag1        17677       0.259    4584.622     4.06
timer:  cdiag2        17677       1.837   32470.046    28.76
timer:  cdiag3        17677       3.394   59997.381    53.14
timer:  cdiag4        17677       0.088    1556.077     1.38
timer:  c-eigvec       8778       5.868   51507.867    45.62
timer:  c-buildD       8778       0.966    8482.872     7.51
timer:  DHSCF4            1      25.669      25.669     0.02
timer:  dfscf             1      23.619      23.619     0.02
timer:  overfsm           1       0.315       0.315     0.00
timer:  optical           1       6.330       6.330     0.01
  

elaps: ELAPSED times:
elaps:  Routine       Calls   Time/call    Tot.time        %
elaps:  siesta            1    9431.468    9431.468   100.00
elaps:  Setup             1       0.284       0.284     0.00
elaps:  bands             3      18.918      56.755     0.60
elaps:  writewave         1       0.002       0.002     0.00
elaps:  KSV_init          1       0.000       0.000     0.00
elaps:  IterMD            1    9373.895    9373.895    99.39
elaps:  hsparse           1       0.029       0.029     0.00
elaps:  overlap           1       0.716       0.716     0.01
elaps:  IterSCF          38     246.372    9362.136    99.26
elaps:  kinefsm           2       0.367       0.733     0.01
elaps:  nlefsm            2       1.714       3.428     0.04
elaps:  DHSCF            39       6.264     244.282     2.59
elaps:  DHSCF1            1       0.101       0.101     0.00
elaps:  DHSCF2            1       2.658       2.658     0.03
elaps:  REORD           314       0.000       0.093     0.00
elaps:  POISON           40       0.038       1.504     0.02
elaps:  DHSCF3           39       6.083     237.229     2.52
elaps:  rhoofd           39       3.098     120.822     1.28
elaps:  cellXC           39       0.203       7.913     0.08
elaps:  vmat             39       2.734     106.643     1.13
elaps:  MolMec            2       0.000       0.000     0.00
elaps:  diagon           38     240.067    9122.532    96.72
elaps:  c-eigval       8899       0.468    4163.964    44.15
elaps:  c-buildHS      8899       0.004      34.145     0.36
elaps:  cdiag         17677       0.471    8331.077    88.33
elaps:  cdiag1        17677       0.021     375.333     3.98
elaps:  cdiag2        17677       0.154    2714.684    28.78
elaps:  cdiag3        17677       0.284    5018.700    53.21
elaps:  cdiag4        17677       0.007     125.827     1.33
elaps:  c-eigvec       8778       0.482    4230.396    44.85
elaps:  c-buildD       8778       0.089     780.507     8.28
elaps:  DHSCF4            1       4.242       4.242     0.04
elaps:  dfscf             1       3.988       3.988     0.04
elaps:  overfsm           1       0.035       0.035     0.00
elaps:  optical           1       0.000       0.000     0.00
  
>> End of run:   4-MAY-2016   6:53:31
