Siesta Version:                                        siesta-3.2-pl-3
Architecture  : x86_64-unknown-linux-gnu--unknown
Compiler flags: mpiifort -g -O2 -fPIC -xSSE4.1 -fp-model source -shared-intel 
PARALLEL version

* Running on   12 nodes in parallel
>> Start of run:   6-APR-2016  14:28:23

                           ***********************       
                           *  WELCOME TO SIESTA  *       
                           ***********************       

reinit: Reading from standard input
************************** Dump of input data file ****************************
#(1) General system descriptors
SystemName            GRP_doping    # Descriptive name of the system
SystemLabel           GRP_doping    # Short name for naming files
%include STRUCT.fdf
%include KPT.fdf
%include BASIS.fdf
#%include TS.fdf # for transiesta calculation
#(4) DFT, Grid, SCF
XC.functional         GGA           # LDA or GGA (default = LDA)
XC.authors            PBE           # CA (Ceperley-Aldr) = PZ
                                    #    (Perdew-Zunger) - LDA - Default
                                    # PW92 (Perdew-Wang-92) - LDA
                                    # PBE (Perdew-Burke-Ernzerhof) - GGA
MeshCutoff            200.000000    Ry      # Default: 50.0 Ry ~ 0.444 Bohr
                                    #         100.0 Ry ~ 0.314 Bohr
MaxSCFIterations      500           # Default: 50
DM.MixingWeight       0.05          # Default: 0.25
DM.NumberPulay        10            # Default: 0
DM.PulayOnFile        F             # SystemLabel.P1, SystemLabel.P2
DM.Tolerance          1.d-4         # Default: 1.d-4
DM.UseSaveDM          .true.        # because of the bug
SCFMustConverge       .true.
NeglNonOverlapInt     F             # Default: F
Diag.ParallelOverK    .true.
#(5) Eigenvalue problem: order-N or diagonalization
SolutionMethod        Diagon        # or Transiesta
ElectronicTemperature 300.0 K       # Default: 300.0 K
#(6) Molecular dynamics and relaxations
#MD.TypeOfRun          CG            # Type of dynamics:
#MD.VariableCell       F
#MD.NumCGsteps         0           # 0 for single-point / 100 for gopt
#MD.MaxCGDispl         0.2 Bohr      # Default: 0.2 Bohr
#MD.MaxForceTol        0.02 eV/Ang   # Default: 0.04 eV/Ang
#MD.MaxStressTol       1.0 GPa       # Default: 1.0 GPa
************************** End of input data file *****************************

reinit: -----------------------------------------------------------------------
reinit: System Name: GRP_doping
reinit: -----------------------------------------------------------------------
reinit: System Label: GRP_doping                                                  
reinit: -----------------------------------------------------------------------

initatom: Reading input for the pseudopotentials and atomic orbitals ----------
 Species number:            1  Label: N Atomic number:           7
 Species number:            2  Label: C Atomic number:           6
Ground state valence configuration:   2s02  2p03
Reading pseudopotential information in formatted form from N.psf

Valence configuration for pseudopotential generation:
2s( 2.00) rc: 1.48
2p( 3.00) rc: 1.48
3d( 0.00) rc: 1.48
4f( 0.00) rc: 1.48
Ground state valence configuration:   2s02  2p02
Reading pseudopotential information in formatted form from C.psf

Valence configuration for pseudopotential generation:
2s( 2.00) rc: 1.54
2p( 2.00) rc: 1.54
3d( 0.00) rc: 1.54
4f( 0.00) rc: 1.54
For N, standard SIESTA heuristics set lmxkb to 3
 (one more than the basis l, including polarization orbitals).
Use PS.lmax or PS.KBprojectors blocks to override.
For C, standard SIESTA heuristics set lmxkb to 3
 (one more than the basis l, including polarization orbitals).
Use PS.lmax or PS.KBprojectors blocks to override.

<basis_specs>
===============================================================================
N                    Z=   7    Mass=  14.010        Charge= 0.17977+309
Lmxo=1 Lmxkb= 3    BasisType=split      Semic=F
L=0  Nsemic=0  Cnfigmx=2
          n=1  nzeta=2  polorb=0
            splnorm:   0.15000    
               vcte:    0.0000    
               rinn:    0.0000    
                rcs:    0.0000      0.0000    
            lambdas:    1.0000      1.0000    
L=1  Nsemic=0  Cnfigmx=2
          n=1  nzeta=2  polorb=1
            splnorm:   0.15000    
               vcte:    0.0000    
               rinn:    0.0000    
                rcs:    0.0000      0.0000    
            lambdas:    1.0000      1.0000    
-------------------------------------------------------------------------------
L=0  Nkbl=1  erefs: 0.17977+309
L=1  Nkbl=1  erefs: 0.17977+309
L=2  Nkbl=1  erefs: 0.17977+309
L=3  Nkbl=1  erefs: 0.17977+309
===============================================================================
</basis_specs>

atom: Called for N                     (Z =   7)

read_vps: Pseudopotential generation method:
read_vps: ATM3      Troullier-Martins                       
Total valence charge:    5.00000

read_vps: Pseudopotential includes a core correction:
read_vps: Pseudo-core for xc-correction

xc_check: Exchange-correlation functional:
xc_check: GGA Perdew, Burke & Ernzerhof 1996
V l=0 = -2*Zval/r beyond r=  1.4606
V l=1 = -2*Zval/r beyond r=  1.4606
V l=2 = -2*Zval/r beyond r=  1.4606
V l=3 = -2*Zval/r beyond r=  1.4606
All V_l potentials equal beyond r=  1.4606
This should be close to max(r_c) in ps generation
All pots = -2*Zval/r beyond r=  1.4606

VLOCAL1: 99.0% of the norm of Vloc inside     20.347 Ry
VLOCAL1: 99.9% of the norm of Vloc inside     46.372 Ry
atom: Maximum radius for 4*pi*r*r*local-pseudopot. charge    1.76189
atom: Maximum radius for r*vlocal+2*Zval:    1.53550
GHOST: No ghost state for L =  0
GHOST: No ghost state for L =  1
GHOST: No ghost state for L =  2
GHOST: No ghost state for L =  3

KBgen: Kleinman-Bylander projectors: 
   l= 0   rc=  1.634559   el= -1.363963   Ekb=  5.296955   kbcos=  0.335621
   l= 1   rc=  1.614250   el= -0.521451   Ekb= -5.259161   kbcos= -0.433408
   l= 2   rc=  1.718383   el=  0.001991   Ekb= -1.271464   kbcos= -0.007566
   l= 3   rc=  1.761893   el=  0.003093   Ekb= -0.494769   kbcos= -0.001015

KBgen: Total number of  Kleinman-Bylander projectors:   16
atom: -------------------------------------------------------------------------

atom: SANKEY-TYPE ORBITALS:
atom: Selected multiple-zeta basis: split     

SPLIT: Orbitals with angular momentum L= 0

SPLIT: Basis orbitals for state 2s

SPLIT: PAO cut-off radius determined from an
SPLIT: energy shift=  0.007350 Ry

   izeta = 1
                 lambda =    1.000000
                     rc =    4.071465
                 energy =   -1.356470
                kinetic =    1.176977
    potential(screened) =   -2.533447
       potential(ionic) =   -8.057990

   izeta = 2
                 rmatch =    2.905100
              splitnorm =    0.150000
                 energy =   -1.158343
                kinetic =    1.813009
    potential(screened) =   -2.971352
       potential(ionic) =   -8.901931

SPLIT: Orbitals with angular momentum L= 1

SPLIT: Basis orbitals for state 2p

SPLIT: PAO cut-off radius determined from an
SPLIT: energy shift=  0.007350 Ry

   izeta = 1
                 lambda =    1.000000
                     rc =    4.972977
                 energy =   -0.513884
                kinetic =    3.441732
    potential(screened) =   -3.955616
       potential(ionic) =   -9.287901

   izeta = 2
                 rmatch =    3.054066
              splitnorm =    0.150000
                 energy =   -0.318226
                kinetic =    5.125348
    potential(screened) =   -5.443573
       potential(ionic) =  -11.380999

POLgen: Perturbative polarization orbital with L=  2

POLgen: Polarization orbital for state 2p

   izeta = 1
                     rc =    4.972977
                 energy =    1.607437
                kinetic =    3.268125
    potential(screened) =   -1.660688
       potential(ionic) =   -5.973652
atom: Total number of Sankey-type orbitals: 13

atm_pop: Valence configuration (for local Pseudopot. screening):
 2s( 2.00)                                                            
 2p( 3.00)                                                            
Vna: chval, zval:    5.00000   5.00000

Vna:  Cut-off radius for the neutral-atom potential:   4.972977
comcore: Pseudo-core radius Rcore=  1.554824

atom: _________________________________________________________________________

<basis_specs>
===============================================================================
C                    Z=   6    Mass=  12.010        Charge= 0.17977+309
Lmxo=1 Lmxkb= 3    BasisType=split      Semic=F
L=0  Nsemic=0  Cnfigmx=2
          n=1  nzeta=2  polorb=0
            splnorm:   0.15000    
               vcte:    0.0000    
               rinn:    0.0000    
                rcs:    0.0000      0.0000    
            lambdas:    1.0000      1.0000    
L=1  Nsemic=0  Cnfigmx=2
          n=1  nzeta=2  polorb=1
            splnorm:   0.15000    
               vcte:    0.0000    
               rinn:    0.0000    
                rcs:    0.0000      0.0000    
            lambdas:    1.0000      1.0000    
-------------------------------------------------------------------------------
L=0  Nkbl=1  erefs: 0.17977+309
L=1  Nkbl=1  erefs: 0.17977+309
L=2  Nkbl=1  erefs: 0.17977+309
L=3  Nkbl=1  erefs: 0.17977+309
===============================================================================
</basis_specs>

atom: Called for C                     (Z =   6)

read_vps: Pseudopotential generation method:
read_vps: ATM3      Troullier-Martins                       
Total valence charge:    4.00000

read_vps: Pseudopotential includes a core correction:
read_vps: Pseudo-core for xc-correction

xc_check: Exchange-correlation functional:
xc_check: GGA Perdew, Burke & Ernzerhof 1996
V l=0 = -2*Zval/r beyond r=  1.5227
V l=1 = -2*Zval/r beyond r=  1.5227
V l=2 = -2*Zval/r beyond r=  1.5227
V l=3 = -2*Zval/r beyond r=  1.5038
All V_l potentials equal beyond r=  1.5227
This should be close to max(r_c) in ps generation
All pots = -2*Zval/r beyond r=  1.5227

VLOCAL1: 99.0% of the norm of Vloc inside     18.722 Ry
VLOCAL1: 99.9% of the norm of Vloc inside     42.668 Ry
atom: Maximum radius for 4*pi*r*r*local-pseudopot. charge    1.83678
atom: Maximum radius for r*vlocal+2*Zval:    1.58088
GHOST: No ghost state for L =  0
GHOST: No ghost state for L =  1
GHOST: No ghost state for L =  2
GHOST: No ghost state for L =  3

KBgen: Kleinman-Bylander projectors: 
   l= 0   rc=  1.704034   el= -1.009801   Ekb=  5.335044   kbcos=  0.316824
   l= 1   rc=  1.704034   el= -0.388707   Ekb= -3.785862   kbcos= -0.366464
   l= 2   rc=  1.791422   el=  0.001971   Ekb= -0.970471   kbcos= -0.009212
   l= 3   rc=  1.859892   el=  0.003065   Ekb= -0.399525   kbcos= -0.001223

KBgen: Total number of  Kleinman-Bylander projectors:   16
atom: -------------------------------------------------------------------------

atom: SANKEY-TYPE ORBITALS:
atom: Selected multiple-zeta basis: split     

SPLIT: Orbitals with angular momentum L= 0

SPLIT: Basis orbitals for state 2s

SPLIT: PAO cut-off radius determined from an
SPLIT: energy shift=  0.007350 Ry

   izeta = 1
                 lambda =    1.000000
                     rc =    4.632753
                 energy =   -1.002270
                kinetic =    0.855760
    potential(screened) =   -1.858031
       potential(ionic) =   -5.417575

   izeta = 2
                 rmatch =    3.431921
              splitnorm =    0.150000
                 energy =   -0.867111
                kinetic =    1.300804
    potential(screened) =   -2.167915
       potential(ionic) =   -5.962684

SPLIT: Orbitals with angular momentum L= 1

SPLIT: Basis orbitals for state 2p

SPLIT: PAO cut-off radius determined from an
SPLIT: energy shift=  0.007350 Ry

   izeta = 1
                 lambda =    1.000000
                     rc =    5.658549
                 energy =   -0.381140
                kinetic =    2.399701
    potential(screened) =   -2.780841
       potential(ionic) =   -6.206085

   izeta = 2
                 rmatch =    3.653288
              splitnorm =    0.150000
                 energy =   -0.249149
                kinetic =    3.542762
    potential(screened) =   -3.791911
       potential(ionic) =   -7.581078

POLgen: Perturbative polarization orbital with L=  2

POLgen: Polarization orbital for state 2p

   izeta = 1
                     rc =    5.658549
                 energy =    1.109913
                kinetic =    2.304789
    potential(screened) =   -1.194876
       potential(ionic) =   -4.013592
atom: Total number of Sankey-type orbitals: 13

atm_pop: Valence configuration (for local Pseudopot. screening):
 2s( 2.00)                                                            
 2p( 2.00)                                                            
Vna: chval, zval:    4.00000   4.00000

Vna:  Cut-off radius for the neutral-atom potential:   5.658549
comcore: Pseudo-core radius Rcore=  1.791422

atom: _________________________________________________________________________

prinput: Basis input ----------------------------------------------------------

PAO.BasisType split     

%block ChemicalSpeciesLabel
    1    7 N                       # Species index, atomic number, species label
    2    6 C                       # Species index, atomic number, species label
%endblock ChemicalSpeciesLabel

%block PAO.Basis                 # Define Basis set
N                     2                    # Species label, number of l-shells
 n=2   0   2                         # n, l, Nzeta 
   4.071      2.905   
   1.000      1.000   
 n=2   1   2 P   1                   # n, l, Nzeta, Polarization, NzetaPol
   4.973      3.054   
   1.000      1.000   
C                     2                    # Species label, number of l-shells
 n=2   0   2                         # n, l, Nzeta 
   4.633      3.432   
   1.000      1.000   
 n=2   1   2 P   1                   # n, l, Nzeta, Polarization, NzetaPol
   5.659      3.653   
   1.000      1.000   
%endblock PAO.Basis

prinput: ----------------------------------------------------------------------

coor:   Atomic-coordinates input format  =     Cartesian coordinates
coor:                                          (in Angstroms)

siesta: Atomic coordinates (Bohr) and species
siesta:      2.23549   1.32088   0.00000  1        1
siesta:      4.56357   2.66443   0.00000  1        2
siesta:     32.50244  21.48363   0.00000  2        3
siesta:     34.83052  22.82718   0.00000  2        4
siesta:     34.83048  17.45108   0.00000  2        5
siesta:     37.15856  18.79463   0.00000  2        6
siesta:     32.50239  13.41853   0.00000  2        7
siesta:     34.83046  14.76208   0.00000  2        8
siesta:     30.17428   9.38598   0.00000  2        9
siesta:     32.50237  10.72953   0.00000  2       10
siesta:     27.84618   5.35343   0.00000  2       11
siesta:     30.17426   6.69698   0.00000  2       12
siesta:     27.84630  21.48363   0.00000  2       13
siesta:     30.17438  22.82718   0.00000  2       14
siesta:      6.89163   1.32088   0.00000  2       15
siesta:      9.21971   2.66443   0.00000  2       16
siesta:     11.54777   1.32088   0.00000  2       17
siesta:     13.87585   2.66443   0.00000  2       18
siesta:     16.20391   1.32088   0.00000  2       19
siesta:     18.53199   2.66443   0.00000  2       20
siesta:     20.86194   1.32088   0.00000  2       21
siesta:     23.19002   2.66443   0.00000  2       22
siesta:     25.51808   1.32088   0.00000  2       23
siesta:     27.84616   2.66443   0.00000  2       24
siesta:      4.56359   5.35343   0.00000  2       25
siesta:      6.89167   6.69698   0.00000  2       26
siesta:      9.21973   5.35343   0.00000  2       27
siesta:     11.54781   6.69698   0.00000  2       28
siesta:     13.87587   5.35343   0.00000  2       29
siesta:     16.20395   6.69698   0.00000  2       30
siesta:     18.53390   5.35343   0.00000  2       31
siesta:     20.86198   6.69698   0.00000  2       32
siesta:     23.19004   5.35343   0.00000  2       33
siesta:     25.51812   6.69698   0.00000  2       34
siesta:      6.89169   9.38598   0.00000  2       35
siesta:      9.21977  10.72953   0.00000  2       36
siesta:     11.54783   9.38598   0.00000  2       37
siesta:     13.87591  10.72953   0.00000  2       38
siesta:     16.20397   9.38598   0.00000  2       39
siesta:     18.53205  10.72953   0.00000  2       40
siesta:     20.86200   9.38598   0.00000  2       41
siesta:     23.19008  10.72953   0.00000  2       42
siesta:      9.21979  13.41853   0.00000  2       43
siesta:     11.54787  14.76208   0.00000  2       44
siesta:     13.87593  13.41853   0.00000  2       45
siesta:     16.20401  14.76208   0.00000  2       46
siesta:     18.53396  13.41853   0.00000  2       47
siesta:     20.86204  14.76208   0.00000  2       48
siesta:     11.54789  17.45108   0.00000  2       49
siesta:     13.87597  18.79463   0.00000  2       50
siesta:     16.20403  17.45108   0.00000  2       51
siesta:     18.53211  18.79463   0.00000  2       52
siesta:     13.87599  21.48363   0.00000  2       53
siesta:     16.20407  22.82718   0.00000  2       54
siesta:     18.53402  21.48363   0.00000  2       55
siesta:     20.86210  22.82718   0.00000  2       56
siesta:     25.51814   9.38598   0.00000  2       57
siesta:     27.84622  10.72953   0.00000  2       58
siesta:     23.19010  13.41853   0.00000  2       59
siesta:     25.51818  14.76208   0.00000  2       60
siesta:     20.86206  17.45108   0.00000  2       61
siesta:     23.19014  18.79463   0.00000  2       62
siesta:     27.84624  13.41853   0.00000  2       63
siesta:     30.17432  14.76208   0.00000  2       64
siesta:     25.51820  17.45108   0.00000  2       65
siesta:     27.84628  18.79463   0.00000  2       66
siesta:     23.19016  21.48363   0.00000  2       67
siesta:     25.51824  22.82718   0.00000  2       68
siesta:     30.17434  17.45108   0.00000  2       69
siesta:     32.50243  18.79463   0.00000  2       70
siesta:     37.16048  21.48363   0.00000  2       71
siesta:     39.48855  22.82718   0.00000  2       72

siesta: System type = slab      

initatomlists: Number of atoms, orbitals, and projectors:     72   936  1152

siesta: ******************** Simulation parameters ****************************
siesta:
siesta: The following are some of the parameters of the simulation.
siesta: A complete list of the parameters used, including default values,
siesta: can be found in file out.fdf
siesta:
redata: Non-Collinear-spin run           =     F
redata: SpinPolarized (Up/Down) run      =     F
redata: Number of spin components        =     1
redata: Long output                      =     F
redata: Number of Atomic Species         =        2
redata: Charge density info will appear in .RHO file
redata: Write Mulliken Pop.              =     NO
redata: Mesh Cutoff                      =   200.0000  Ry
redata: Net charge of the system         =     0.0000 |e|
redata: Max. number of SCF Iter          =      500
redata: SCF convergence failure will abort job
redata: Performing Pulay mixing using    =    10 iterations
redata: Mix DM in first SCF step ?       =     F
redata: Write Pulay info on disk?        =     F
redata: Discard 1st Pulay DM after  kick =     F
redata: New DM Mixing Weight             =     0.0500
redata: New DM Occupancy tolerance       = 0.000000000001
redata: No kicks to SCF
redata: DM Mixing Weight for Kicks       =     0.5000
redata: DM Tolerance for SCF             =     0.000100
redata: Require Energy convergence for SCF =     F
redata: DM Energy tolerance for SCF      =     0.000100 eV
redata: Require Harris convergence for SCF =     F
redata: DM Harris energy tolerance for SCF =     0.000100 eV
redata: Using Saved Data (generic)   =     F
redata: Use continuation files for DM    =     T
redata: Neglect nonoverlap interactions  =     F
redata: Method of Calculation            =     Diagonalization
redata: Divide and Conquer               =     T
redata: Electronic Temperature           =     0.0019  Ry
redata: Fix the spin of the system       =     F
redata: Dynamics option                  =     Verlet MD run
redata: Initial MD time step             =        1
redata:   Final MD time step             =        1
redata: Length of MD time step           =     1.0000  fs
redata: Initial Temperature of MD run    =     0.0000  K
redata: Perform a MD quench              =     F
redata: ***********************************************************************
Total number of electrons:   290.000000
Total ionic charge:   290.000000

* ProcessorY, Blocksize:    3  24

k-point displ. along   1 input, could be:     0.50    0.00
k-point displ. along   2 input, could be:     0.50    0.00
 Kpoints in:          231 . Kpoints trimmed:          231

siesta: k-grid: Number of k-points =   231
siesta: k-grid: Cutoff (effective) =     5.000 Ang
siesta: k-grid: Supercell and displacements
siesta: k-grid:   21   0   0      0.500
siesta: k-grid:    0  21   0      0.500
siesta: k-grid:    0   0   1      0.000
Naive supercell factors:     2    2    2

superc: Internal auxiliary supercell:     2 x     2 x     2  =       8
superc: Number of atoms, orbitals, and projectors:    576   7488   9216

* Maximum dynamic memory allocated =     4 MB

siesta:                 ==============================
                            Begin MD step =      1
                        ==============================

superc: Internal auxiliary supercell:     2 x     2 x     2  =       8
superc: Number of atoms, orbitals, and projectors:    576   7488   9216

outcell: Unit cell vectors (Ang):
       14.785000    0.000000    0.000000
        7.392500   12.804185    0.000000
        0.000000    0.000000   10.000000

outcell: Cell vector modules (Ang)   :   14.785000   14.785000   10.000000
outcell: Cell angles (23,13,12) (deg):     90.0000     90.0000     60.0000
outcell: Cell volume (Ang**3)        :   1893.0988
New_DM. Step:     1
Initializing Density Matrix...

iodm: Reading Density Matrix from files

InitMesh: MESH =   120 x   120 x    90 =     1296000
InitMesh: Mesh cutoff (required, used) =   200.000   223.865 Ry

* Maximum dynamic memory allocated =   137 MB

stepf: Fermi-Dirac step function

siesta: Program's energy decomposition (eV):
siesta: Ebs     =     -3990.109553
siesta: Eions   =     18724.504759
siesta: Ena     =      3995.679296
siesta: Ekin    =      7999.356477
siesta: Enl     =      -851.727978
siesta: DEna    =      -278.048920
siesta: DUscf   =        24.740862
siesta: DUext   =         0.000000
siesta: Exc     =     -4086.129101
siesta: eta*DQ  =         0.000000
siesta: Emadel  =         0.000000
siesta: Emeta   =         0.000000
siesta: Emolmec =         0.000000
siesta: Ekinion =         0.000000
siesta: Eharris =    -11920.627072
siesta: Etot    =    -11920.634122
siesta: FreeEng =    -11920.634122

siesta: iscf   Eharris(eV)      E_KS(eV)   FreeEng(eV)   dDmax  Ef(eV)
siesta:    1   -11920.6271   -11920.6341   -11920.6341  0.0002 -4.0516
timer: Routine,Calls,Time,% = IterSCF        1    1169.030  98.94
elaps: Routine,Calls,Wall,% = IterSCF        1      97.656  98.94
siesta:    2   -11920.6271   -11920.6271   -11920.6440  0.0002 -4.0512
siesta:    3   -11920.6271   -11920.6310   -11920.6479  0.0000 -4.0515

siesta: E_KS(eV) =           -11920.6285

siesta: E_KS - E_eggbox =    -11920.6285

siesta: Atomic forces (eV/Ang):
----------------------------------------
   Tot    0.211995   -0.288509    0.000000
----------------------------------------
   Max    1.051621
   Res    0.242771    sqrt( Sum f_i^2 / 3N )
----------------------------------------
   Max    1.051621    constrained

Stress-tensor-Voigt (kbar):      -29.87      -28.65        0.04       -0.98        0.00        0.00
(Free)E + p*V (eV/cell)   -11897.6119
Target enthalpy (eV/cell)   -11920.6455

siesta: Stress tensor (static) (eV/Ang**3):
        -0.018642   -0.000612    0.000000
        -0.000612   -0.017883    0.000000
         0.000000    0.000000    0.000024

siesta: Pressure (static):         19.49407378  kBar

siesta: Stress tensor (total) (eV/Ang**3):
        -0.018642   -0.000612    0.000000
        -0.000612   -0.017883    0.000000
         0.000000    0.000000    0.000024

siesta: Pressure (total):         19.49407378  kBar

siesta: Temp_ion =       0.000 K

* Maximum dynamic memory allocated =   232 MB

siesta: Program's energy decomposition (eV):
siesta: Ebs     =     -3990.114607
siesta: Eions   =     18724.504759
siesta: Ena     =      3995.679296
siesta: Ekin    =      7999.357516
siesta: Enl     =      -851.728371
siesta: DEna    =      -278.044930
siesta: DUscf   =        24.740384
siesta: DUext   =         0.000000
siesta: Exc     =     -4086.127654
siesta: eta*DQ  =         0.000000
siesta: Emadel  =         0.000000
siesta: Emeta   =         0.000000
siesta: Emolmec =         0.000000
siesta: Ekinion =         0.000000
siesta: Eharris =    -11920.627066
siesta: Etot    =    -11920.628518
siesta: FreeEng =    -11920.645473

siesta: Final energy (eV):
siesta:  Band Struct. =   -3990.114607
siesta:       Kinetic =    7999.357516
siesta:       Hartree =   23492.488629
siesta:    Ext. field =       0.000000
siesta:   Exch.-corr. =   -4086.127654
siesta:  Ion-electron =  -54376.446508
siesta:       Ion-ion =   15050.099499
siesta:       Ekinion =       0.000000
siesta:         Total =  -11920.628518

siesta: Atomic forces (eV/Ang):
siesta:      1   -1.049200   -0.631639    0.000000
siesta:      2    1.051621    0.625127    0.000000
siesta:      3    0.049079    0.040408    0.000000
siesta:      4   -0.114183    0.162790    0.000000
siesta:      5    0.066406    0.002060    0.000000
siesta:      6    0.074060   -0.203746    0.000000
siesta:      7   -0.092612    0.095469    0.000000
siesta:      8    0.044617   -0.010291    0.000000
siesta:      9    0.277062   -0.200795    0.000000
siesta:     10    0.090628   -0.033898    0.000000
siesta:     11   -0.282332   -0.762321    0.000000
siesta:     12    0.809808   -0.129157    0.000000
siesta:     13    0.048932   -0.146114    0.000000
siesta:     14    0.005036    0.053275    0.000000
siesta:     15   -0.765297   -0.376407    0.000000
siesta:     16   -0.586386    0.145046    0.000000
siesta:     17   -0.049509   -0.392376    0.000000
siesta:     18   -0.041628    0.185117    0.000000
siesta:     19    0.063445   -0.092635    0.000000
siesta:     20   -0.011932    0.055783    0.000000
siesta:     21    0.011058   -0.215432    0.000000
siesta:     22    0.054282    0.357354    0.000000
siesta:     23    0.594722   -0.178239    0.000000
siesta:     24    0.778939    0.347548    0.000000
siesta:     25   -0.692327   -0.495754    0.000000
siesta:     26   -0.165202   -0.578029    0.000000
siesta:     27    0.407101    0.221634    0.000000
siesta:     28   -0.352707   -0.200384    0.000000
siesta:     29    0.161307   -0.154562    0.000000
siesta:     30   -0.010627   -0.053210    0.000000
siesta:     31   -0.042858   -0.031530    0.000000
siesta:     32   -0.045432    0.141647    0.000000
siesta:     33   -0.000196   -0.096254    0.000000
siesta:     34    0.028194   -0.325860    0.000000
siesta:     35   -0.349315    0.123385    0.000000
siesta:     36    0.139905   -0.126081    0.000000
siesta:     37   -0.044170    0.191631    0.000000
siesta:     38   -0.060146   -0.009147    0.000000
siesta:     39    0.079841    0.031484    0.000000
siesta:     40   -0.025877   -0.044061    0.000000
siesta:     41   -0.095804   -0.139668    0.000000
siesta:     42    0.137534   -0.098333    0.000000
siesta:     43   -0.036230    0.070386    0.000000
siesta:     44    0.026719   -0.071025    0.000000
siesta:     45   -0.019241   -0.003399    0.000000
siesta:     46    0.129418   -0.113129    0.000000
siesta:     47   -0.189390    0.003575    0.000000
siesta:     48   -0.018350    0.175375    0.000000
siesta:     49   -0.149392    0.122104    0.000000
siesta:     50    0.339101   -0.127767    0.000000
siesta:     51   -0.069812    0.023762    0.000000
siesta:     52   -0.229060    0.182787    0.000000
siesta:     53    0.191349    0.569266    0.000000
siesta:     54    0.723776    0.497347    0.000000
siesta:     55   -0.830832    0.124821    0.000000
siesta:     56    0.280035    0.771563    0.000000
siesta:     57   -0.096814    0.096863    0.000000
siesta:     58   -0.043342    0.145715    0.000000
siesta:     59    0.119171    0.054600    0.000000
siesta:     60   -0.114411   -0.063399    0.000000
siesta:     61    0.018523   -0.145392    0.000000
siesta:     62    0.097901   -0.107367    0.000000
siesta:     63    0.022324   -0.184007    0.000000
siesta:     64    0.154408   -0.004582    0.000000
siesta:     65   -0.136127    0.089453    0.000000
siesta:     66    0.070862    0.137788    0.000000
siesta:     67   -0.023743    0.321148    0.000000
siesta:     68    0.008184    0.104814    0.000000
siesta:     69    0.072032    0.028881    0.000000
siesta:     70   -0.072519   -0.040394    0.000000
siesta:     71    0.317278    0.202149    0.000000
siesta:     72   -0.425653   -0.204278    0.000000
siesta: ----------------------------------------
siesta:    Tot    0.211995   -0.288509    0.000000

siesta: Stress tensor (static) (eV/Ang**3):
siesta:    -0.018642   -0.000612    0.000000
siesta:    -0.000612   -0.017883    0.000000
siesta:     0.000000    0.000000    0.000024

siesta: Cell volume =       1893.098801 Ang**3

siesta: Pressure (static):
siesta:                Solid            Molecule  Units
siesta:           0.00013252          0.00003792  Ry/Bohr**3
siesta:           0.01216711          0.00348148  eV/Ang**3
siesta:          19.49407378          5.57801016  kBar
(Free)E+ p_basis*V_orbitals  =      -11890.193781
(Free)Eharris+ p_basis*V_orbitals  =      -11890.189887

siesta: Electric dipole (a.u.)  =    0.000000    0.000000    0.000000
siesta: Electric dipole (Debye) =    0.000000    0.000000    0.000000

* Maximum dynamic memory allocated : Node    0 =   232 MB
* Maximum dynamic memory allocated : Node    1 =   146 MB
* Maximum dynamic memory allocated : Node    2 =   147 MB
* Maximum dynamic memory allocated : Node    3 =   221 MB
* Maximum dynamic memory allocated : Node    4 =   229 MB
* Maximum dynamic memory allocated : Node    5 =   142 MB
* Maximum dynamic memory allocated : Node    6 =   143 MB
* Maximum dynamic memory allocated : Node    7 =   222 MB
* Maximum dynamic memory allocated : Node    8 =   228 MB
* Maximum dynamic memory allocated : Node    9 =   141 MB
* Maximum dynamic memory allocated : Node   10 =   143 MB
* Maximum dynamic memory allocated : Node   11 =   222 MB

* Maximum memory occured during cdiag                         

timer: CPU execution times:
timer:  Routine       Calls   Time/call    Tot.time        %
timer:  siesta            1    3529.829    3529.829   100.00
timer:  Setup             1       3.413       3.413     0.10
timer:  bands             1       0.012       0.012     0.00
timer:  writewave         1       0.024       0.024     0.00
timer:  KSV_init          1       0.002       0.002     0.00
timer:  IterMD            1    3520.069    3520.069    99.72
timer:  hsparse           1       0.178       0.178     0.01
timer:  overlap           1       4.589       4.589     0.13
timer:  IterSCF           3    1132.615    3397.846    96.26
timer:  kinefsm           2       2.332       4.664     0.13
timer:  nlefsm            2      18.791      37.581     1.06
timer:  DHSCF             4      74.016     296.064     8.39
timer:  DHSCF1            1       0.899       0.899     0.03
timer:  DHSCF2            1      24.220      24.220     0.69
timer:  REORD            34       0.003       0.094     0.00
timer:  POISON            5       0.468       2.340     0.07
timer:  DHSCF3            4      62.249     248.997     7.05
timer:  rhoofd            4      12.224      48.896     1.39
timer:  cellXC            4       2.439       9.755     0.28
timer:  vmat              4      30.463     121.854     3.45
timer:  MolMec            2       0.000       0.000     0.00
timer:  diagon            3    1048.027    3144.080    89.07
timer:  cdiag           120      17.904    2067.223    58.56
timer:  cdiag1          120       0.872     100.653     2.85
timer:  cdiag2          120       3.019     348.514     9.87
timer:  cdiag3          120      13.812    1594.718    45.18
timer:  cdiag4          120       0.199      22.977     0.65
timer:  DHSCF4            1      21.880      21.880     0.62
timer:  dfscf             1      20.431      20.431     0.58
timer:  overfsm           1       0.267       0.267     0.01
timer:  optical           1       5.811       5.811     0.16
  

elaps: ELAPSED times:
elaps:  Routine       Calls   Time/call    Tot.time        %
elaps:  siesta            1     294.871     294.871   100.00
elaps:  Setup             1       0.285       0.285     0.10
elaps:  bands             1       0.001       0.001     0.00
elaps:  writewave         1       0.002       0.002     0.00
elaps:  KSV_init          1       0.000       0.000     0.00
elaps:  IterMD            1     294.055     294.055    99.72
elaps:  hsparse           1       0.017       0.017     0.01
elaps:  overlap           1       0.708       0.708     0.24
elaps:  IterSCF           3      94.615     283.846    96.26
elaps:  kinefsm           2       0.361       0.721     0.24
elaps:  nlefsm            2       1.701       3.401     1.15
elaps:  DHSCF             4       6.547      26.190     8.88
elaps:  DHSCF1            1       0.077       0.077     0.03
elaps:  DHSCF2            1       2.022       2.022     0.69
elaps:  REORD            34       0.000       0.010     0.00
elaps:  POISON            5       0.040       0.198     0.07
elaps:  DHSCF3            4       5.199      20.798     7.05
elaps:  rhoofd            4       1.740       6.961     2.36
elaps:  cellXC            4       0.204       0.814     0.28
elaps:  vmat              4       2.544      10.177     3.45
elaps:  MolMec            2       0.000       0.000     0.00
elaps:  diagon            3      87.550     262.649    89.07
elaps:  cdiag           120       1.468     176.150    59.74
elaps:  cdiag1          120       0.069       8.330     2.82
elaps:  cdiag2          120       0.242      28.982     9.83
elaps:  cdiag3          120       1.139     136.667    46.35
elaps:  cdiag4          120       0.018       2.147     0.73
elaps:  DHSCF4            1       3.286       3.286     1.11
elaps:  dfscf             1       3.098       3.098     1.05
elaps:  overfsm           1       0.027       0.027     0.01
elaps:  optical           1       0.000       0.000     0.00
  
>> End of run:   6-APR-2016  14:33:18
