Siesta Version:                                        siesta-3.2-pl-3
Architecture  : x86_64-unknown-linux-gnu--unknown
Compiler flags: mpiifort -g -O2 -fPIC -xSSE4.1 -fp-model source -shared-intel 
PARALLEL version

* Running on   12 nodes in parallel
>> Start of run:   6-APR-2016  14:00:09

                           ***********************       
                           *  WELCOME TO SIESTA  *       
                           ***********************       

reinit: Reading from standard input
************************** Dump of input data file ****************************
#(1) General system descriptors
SystemName            GRP_doping    # Descriptive name of the system
SystemLabel           GRP_doping    # Short name for naming files
%include STRUCT.fdf
%include KPT.fdf
%include BASIS.fdf
#%include TS.fdf # for transiesta calculation
#(4) DFT, Grid, SCF
XC.functional         GGA           # LDA or GGA (default = LDA)
XC.authors            PBE           # CA (Ceperley-Aldr) = PZ
                                    #    (Perdew-Zunger) - LDA - Default
                                    # PW92 (Perdew-Wang-92) - LDA
                                    # PBE (Perdew-Burke-Ernzerhof) - GGA
MeshCutoff            200.000000    Ry      # Default: 50.0 Ry ~ 0.444 Bohr
                                    #         100.0 Ry ~ 0.314 Bohr
MaxSCFIterations      500           # Default: 50
DM.MixingWeight       0.05          # Default: 0.25
DM.NumberPulay        10            # Default: 0
DM.PulayOnFile        F             # SystemLabel.P1, SystemLabel.P2
DM.Tolerance          1.d-4         # Default: 1.d-4
DM.UseSaveDM          .true.        # because of the bug
SCFMustConverge       .true.
NeglNonOverlapInt     F             # Default: F
Diag.ParallelOverK    .true.
#(5) Eigenvalue problem: order-N or diagonalization
SolutionMethod        Diagon        # or Transiesta
ElectronicTemperature 300.0 K       # Default: 300.0 K
#(6) Molecular dynamics and relaxations
#MD.TypeOfRun          CG            # Type of dynamics:
#MD.VariableCell       F
#MD.NumCGsteps         0           # 0 for single-point / 100 for gopt
#MD.MaxCGDispl         0.2 Bohr      # Default: 0.2 Bohr
#MD.MaxForceTol        0.02 eV/Ang   # Default: 0.04 eV/Ang
#MD.MaxStressTol       1.0 GPa       # Default: 1.0 GPa
************************** End of input data file *****************************

reinit: -----------------------------------------------------------------------
reinit: System Name: GRP_doping
reinit: -----------------------------------------------------------------------
reinit: System Label: GRP_doping                                                  
reinit: -----------------------------------------------------------------------

initatom: Reading input for the pseudopotentials and atomic orbitals ----------
 Species number:            1  Label: B Atomic number:           5
 Species number:            2  Label: C Atomic number:           6
Ground state valence configuration:   2s02  2p01
Reading pseudopotential information in formatted form from B.psf

Valence configuration for pseudopotential generation:
2s( 2.00) rc: 1.74
2p( 1.00) rc: 1.74
3d( 0.00) rc: 1.74
4f( 0.00) rc: 1.74
Ground state valence configuration:   2s02  2p02
Reading pseudopotential information in formatted form from C.psf

Valence configuration for pseudopotential generation:
2s( 2.00) rc: 1.54
2p( 2.00) rc: 1.54
3d( 0.00) rc: 1.54
4f( 0.00) rc: 1.54
For B, standard SIESTA heuristics set lmxkb to 3
 (one more than the basis l, including polarization orbitals).
Use PS.lmax or PS.KBprojectors blocks to override.
For C, standard SIESTA heuristics set lmxkb to 3
 (one more than the basis l, including polarization orbitals).
Use PS.lmax or PS.KBprojectors blocks to override.

<basis_specs>
===============================================================================
B                    Z=   5    Mass=  10.810        Charge= 0.17977+309
Lmxo=1 Lmxkb= 3    BasisType=split      Semic=F
L=0  Nsemic=0  Cnfigmx=2
          n=1  nzeta=2  polorb=0
            splnorm:   0.15000    
               vcte:    0.0000    
               rinn:    0.0000    
                rcs:    0.0000      0.0000    
            lambdas:    1.0000      1.0000    
L=1  Nsemic=0  Cnfigmx=2
          n=1  nzeta=2  polorb=1
            splnorm:   0.15000    
               vcte:    0.0000    
               rinn:    0.0000    
                rcs:    0.0000      0.0000    
            lambdas:    1.0000      1.0000    
-------------------------------------------------------------------------------
L=0  Nkbl=1  erefs: 0.17977+309
L=1  Nkbl=1  erefs: 0.17977+309
L=2  Nkbl=1  erefs: 0.17977+309
L=3  Nkbl=1  erefs: 0.17977+309
===============================================================================
</basis_specs>

atom: Called for B                     (Z =   5)

read_vps: Pseudopotential generation method:
read_vps: ATM3      Troullier-Martins                       
Total valence charge:    3.00000

read_vps: Pseudopotential includes a core correction:
read_vps: Pseudo-core for xc-correction

xc_check: Exchange-correlation functional:
xc_check: GGA Perdew, Burke & Ernzerhof 1996
V l=0 = -2*Zval/r beyond r=  1.7165
V l=1 = -2*Zval/r beyond r=  1.7165
V l=2 = -2*Zval/r beyond r=  1.7165
V l=3 = -2*Zval/r beyond r=  1.6951
All V_l potentials equal beyond r=  1.7165
This should be close to max(r_c) in ps generation
All pots = -2*Zval/r beyond r=  1.7165

VLOCAL1: 99.0% of the norm of Vloc inside     14.733 Ry
VLOCAL1: 99.9% of the norm of Vloc inside     33.577 Ry
atom: Maximum radius for 4*pi*r*r*local-pseudopot. charge    2.04484
atom: Maximum radius for r*vlocal+2*Zval:    1.75994
GHOST: No ghost state for L =  0
GHOST: No ghost state for L =  1
GHOST: No ghost state for L =  2
GHOST: No ghost state for L =  3

KBgen: Kleinman-Bylander projectors: 
   l= 0   rc=  1.897051   el= -0.693730   Ekb=  4.595746   kbcos=  0.286105
   l= 1   rc=  1.920920   el= -0.265236   Ekb= -2.350715   kbcos= -0.315747
   l= 2   rc=  2.044840   el=  0.002055   Ekb= -0.690767   kbcos= -0.013822
   l= 3   rc=  2.149707   el=  0.003188   Ekb= -0.315358   kbcos= -0.002055

KBgen: Total number of  Kleinman-Bylander projectors:   16
atom: -------------------------------------------------------------------------

atom: SANKEY-TYPE ORBITALS:
atom: Selected multiple-zeta basis: split     

SPLIT: Orbitals with angular momentum L= 0

SPLIT: Basis orbitals for state 2s

SPLIT: PAO cut-off radius determined from an
SPLIT: energy shift=  0.007350 Ry

   izeta = 1
                 lambda =    1.000000
                     rc =    5.422032
                 energy =   -0.686029
                kinetic =    0.576707
    potential(screened) =   -1.262736
       potential(ionic) =   -3.271094

   izeta = 2
                 rmatch =    4.222573
              splitnorm =    0.150000
                 energy =   -0.602132
                kinetic =    0.858975
    potential(screened) =   -1.461107
       potential(ionic) =   -3.582536

SPLIT: Orbitals with angular momentum L= 1

SPLIT: Basis orbitals for state 2p

SPLIT: PAO cut-off radius determined from an
SPLIT: energy shift=  0.007350 Ry

   izeta = 1
                 lambda =    1.000000
                     rc =    6.790259
                 energy =   -0.258578
                kinetic =    1.481412
    potential(screened) =   -1.739989
       potential(ionic) =   -3.657461

   izeta = 2
                 rmatch =    4.608740
              splitnorm =    0.150000
                 energy =   -0.173757
                kinetic =    2.186690
    potential(screened) =   -2.360447
       potential(ionic) =   -4.464260

POLgen: Perturbative polarization orbital with L=  2

POLgen: Polarization orbital for state 2p

   izeta = 1
                     rc =    6.790259
                 energy =    0.684082
                kinetic =    1.471481
    potential(screened) =   -0.787399
       potential(ionic) =   -2.406985
atom: Total number of Sankey-type orbitals: 13

atm_pop: Valence configuration (for local Pseudopot. screening):
 2s( 2.00)                                                            
 2p( 1.00)                                                            
Vna: chval, zval:    3.00000   3.00000

Vna:  Cut-off radius for the neutral-atom potential:   6.790259
comcore: Pseudo-core radius Rcore=  2.122997

atom: _________________________________________________________________________

<basis_specs>
===============================================================================
C                    Z=   6    Mass=  12.010        Charge= 0.17977+309
Lmxo=1 Lmxkb= 3    BasisType=split      Semic=F
L=0  Nsemic=0  Cnfigmx=2
          n=1  nzeta=2  polorb=0
            splnorm:   0.15000    
               vcte:    0.0000    
               rinn:    0.0000    
                rcs:    0.0000      0.0000    
            lambdas:    1.0000      1.0000    
L=1  Nsemic=0  Cnfigmx=2
          n=1  nzeta=2  polorb=1
            splnorm:   0.15000    
               vcte:    0.0000    
               rinn:    0.0000    
                rcs:    0.0000      0.0000    
            lambdas:    1.0000      1.0000    
-------------------------------------------------------------------------------
L=0  Nkbl=1  erefs: 0.17977+309
L=1  Nkbl=1  erefs: 0.17977+309
L=2  Nkbl=1  erefs: 0.17977+309
L=3  Nkbl=1  erefs: 0.17977+309
===============================================================================
</basis_specs>

atom: Called for C                     (Z =   6)

read_vps: Pseudopotential generation method:
read_vps: ATM3      Troullier-Martins                       
Total valence charge:    4.00000

read_vps: Pseudopotential includes a core correction:
read_vps: Pseudo-core for xc-correction

xc_check: Exchange-correlation functional:
xc_check: GGA Perdew, Burke & Ernzerhof 1996
V l=0 = -2*Zval/r beyond r=  1.5227
V l=1 = -2*Zval/r beyond r=  1.5227
V l=2 = -2*Zval/r beyond r=  1.5227
V l=3 = -2*Zval/r beyond r=  1.5038
All V_l potentials equal beyond r=  1.5227
This should be close to max(r_c) in ps generation
All pots = -2*Zval/r beyond r=  1.5227

VLOCAL1: 99.0% of the norm of Vloc inside     18.722 Ry
VLOCAL1: 99.9% of the norm of Vloc inside     42.668 Ry
atom: Maximum radius for 4*pi*r*r*local-pseudopot. charge    1.83678
atom: Maximum radius for r*vlocal+2*Zval:    1.58088
GHOST: No ghost state for L =  0
GHOST: No ghost state for L =  1
GHOST: No ghost state for L =  2
GHOST: No ghost state for L =  3

KBgen: Kleinman-Bylander projectors: 
   l= 0   rc=  1.704034   el= -1.009801   Ekb=  5.335044   kbcos=  0.316824
   l= 1   rc=  1.704034   el= -0.388707   Ekb= -3.785862   kbcos= -0.366464
   l= 2   rc=  1.791422   el=  0.001971   Ekb= -0.970471   kbcos= -0.009212
   l= 3   rc=  1.859892   el=  0.003065   Ekb= -0.399525   kbcos= -0.001223

KBgen: Total number of  Kleinman-Bylander projectors:   16
atom: -------------------------------------------------------------------------

atom: SANKEY-TYPE ORBITALS:
atom: Selected multiple-zeta basis: split     

SPLIT: Orbitals with angular momentum L= 0

SPLIT: Basis orbitals for state 2s

SPLIT: PAO cut-off radius determined from an
SPLIT: energy shift=  0.007350 Ry

   izeta = 1
                 lambda =    1.000000
                     rc =    4.632753
                 energy =   -1.002270
                kinetic =    0.855760
    potential(screened) =   -1.858031
       potential(ionic) =   -5.417575

   izeta = 2
                 rmatch =    3.431921
              splitnorm =    0.150000
                 energy =   -0.867111
                kinetic =    1.300804
    potential(screened) =   -2.167915
       potential(ionic) =   -5.962684

SPLIT: Orbitals with angular momentum L= 1

SPLIT: Basis orbitals for state 2p

SPLIT: PAO cut-off radius determined from an
SPLIT: energy shift=  0.007350 Ry

   izeta = 1
                 lambda =    1.000000
                     rc =    5.658549
                 energy =   -0.381140
                kinetic =    2.399701
    potential(screened) =   -2.780841
       potential(ionic) =   -6.206085

   izeta = 2
                 rmatch =    3.653288
              splitnorm =    0.150000
                 energy =   -0.249149
                kinetic =    3.542762
    potential(screened) =   -3.791911
       potential(ionic) =   -7.581078

POLgen: Perturbative polarization orbital with L=  2

POLgen: Polarization orbital for state 2p

   izeta = 1
                     rc =    5.658549
                 energy =    1.109913
                kinetic =    2.304789
    potential(screened) =   -1.194876
       potential(ionic) =   -4.013592
atom: Total number of Sankey-type orbitals: 13

atm_pop: Valence configuration (for local Pseudopot. screening):
 2s( 2.00)                                                            
 2p( 2.00)                                                            
Vna: chval, zval:    4.00000   4.00000

Vna:  Cut-off radius for the neutral-atom potential:   5.658549
comcore: Pseudo-core radius Rcore=  1.791422

atom: _________________________________________________________________________

prinput: Basis input ----------------------------------------------------------

PAO.BasisType split     

%block ChemicalSpeciesLabel
    1    5 B                       # Species index, atomic number, species label
    2    6 C                       # Species index, atomic number, species label
%endblock ChemicalSpeciesLabel

%block PAO.Basis                 # Define Basis set
B                     2                    # Species label, number of l-shells
 n=2   0   2                         # n, l, Nzeta 
   5.422      4.223   
   1.000      1.000   
 n=2   1   2 P   1                   # n, l, Nzeta, Polarization, NzetaPol
   6.790      4.609   
   1.000      1.000   
C                     2                    # Species label, number of l-shells
 n=2   0   2                         # n, l, Nzeta 
   4.633      3.432   
   1.000      1.000   
 n=2   1   2 P   1                   # n, l, Nzeta, Polarization, NzetaPol
   5.659      3.653   
   1.000      1.000   
%endblock PAO.Basis

prinput: ----------------------------------------------------------------------

coor:   Atomic-coordinates input format  =     Cartesian coordinates
coor:                                          (in Angstroms)

siesta: Atomic coordinates (Bohr) and species
siesta:      2.23554   1.32097   0.00000  1        1
siesta:     16.20396   1.32097   0.00000  1        2
siesta:      4.56367   2.66461   0.00000  2        3
siesta:     32.50328  21.48508   0.00000  2        4
siesta:     34.83141  22.82873   0.00000  2        5
siesta:     34.83116  17.45226   0.00000  2        6
siesta:     37.15930  18.79590   0.00000  2        7
siesta:     32.50291  13.41944   0.00000  2        8
siesta:     34.83104  14.76308   0.00000  2        9
siesta:     30.17465   9.38661   0.00000  2       10
siesta:     32.50278  10.73026   0.00000  2       11
siesta:     27.84639   5.35379   0.00000  2       12
siesta:     30.17453   6.69743   0.00000  2       13
siesta:     27.84714  21.48508   0.00000  2       14
siesta:     30.17527  22.82873   0.00000  2       15
siesta:      6.89168   1.32097   0.00000  2       16
siesta:      9.21981   2.66461   0.00000  2       17
siesta:     11.54782   1.32097   0.00000  2       18
siesta:     13.87595   2.66461   0.00000  2       19
siesta:     18.53210   2.66461   0.00000  2       20
siesta:     20.86199   1.32097   0.00000  2       21
siesta:     23.19013   2.66461   0.00000  2       22
siesta:     25.51813   1.32097   0.00000  2       23
siesta:     27.84627   2.66461   0.00000  2       24
siesta:      4.56380   5.35379   0.00000  2       25
siesta:      6.89193   6.69743   0.00000  2       26
siesta:      9.21994   5.35379   0.00000  2       27
siesta:     11.54807   6.69743   0.00000  2       28
siesta:     13.87608   5.35379   0.00000  2       29
siesta:     16.20421   6.69743   0.00000  2       30
siesta:     18.53411   5.35379   0.00000  2       31
siesta:     20.86224   6.69743   0.00000  2       32
siesta:     23.19025   5.35379   0.00000  2       33
siesta:     25.51838   6.69743   0.00000  2       34
siesta:      6.89205   9.38661   0.00000  2       35
siesta:      9.22019  10.73026   0.00000  2       36
siesta:     11.54820   9.38661   0.00000  2       37
siesta:     13.87633  10.73026   0.00000  2       38
siesta:     16.20434   9.38661   0.00000  2       39
siesta:     18.53247  10.73026   0.00000  2       40
siesta:     20.86237   9.38661   0.00000  2       41
siesta:     23.19050  10.73026   0.00000  2       42
siesta:      9.22031  13.41944   0.00000  2       43
siesta:     11.54845  14.76308   0.00000  2       44
siesta:     13.87645  13.41944   0.00000  2       45
siesta:     16.20459  14.76308   0.00000  2       46
siesta:     18.53448  13.41944   0.00000  2       47
siesta:     20.86262  14.76308   0.00000  2       48
siesta:     11.54857  17.45226   0.00000  2       49
siesta:     13.87670  18.79590   0.00000  2       50
siesta:     16.20471  17.45226   0.00000  2       51
siesta:     18.53284  18.79590   0.00000  2       52
siesta:     13.87683  21.48508   0.00000  2       53
siesta:     16.20496  22.82873   0.00000  2       54
siesta:     18.53486  21.48508   0.00000  2       55
siesta:     20.86299  22.82873   0.00000  2       56
siesta:     25.51851   9.38661   0.00000  2       57
siesta:     27.84664  10.73026   0.00000  2       58
siesta:     23.19063  13.41944   0.00000  2       59
siesta:     25.51876  14.76308   0.00000  2       60
siesta:     20.86274  17.45226   0.00000  2       61
siesta:     23.19088  18.79590   0.00000  2       62
siesta:     27.84677  13.41944   0.00000  2       63
siesta:     30.17490  14.76308   0.00000  2       64
siesta:     25.51888  17.45226   0.00000  2       65
siesta:     27.84702  18.79590   0.00000  2       66
siesta:     23.19100  21.48508   0.00000  2       67
siesta:     25.51913  22.82873   0.00000  2       68
siesta:     30.17503  17.45226   0.00000  2       69
siesta:     32.50316  18.79590   0.00000  2       70
siesta:     37.16131  21.48508   0.00000  2       71
siesta:     39.48945  22.82873   0.00000  2       72

siesta: System type = slab      

initatomlists: Number of atoms, orbitals, and projectors:     72   936  1152

siesta: ******************** Simulation parameters ****************************
siesta:
siesta: The following are some of the parameters of the simulation.
siesta: A complete list of the parameters used, including default values,
siesta: can be found in file out.fdf
siesta:
redata: Non-Collinear-spin run           =     F
redata: SpinPolarized (Up/Down) run      =     F
redata: Number of spin components        =     1
redata: Long output                      =     F
redata: Number of Atomic Species         =        2
redata: Charge density info will appear in .RHO file
redata: Write Mulliken Pop.              =     NO
redata: Mesh Cutoff                      =   200.0000  Ry
redata: Net charge of the system         =     0.0000 |e|
redata: Max. number of SCF Iter          =      500
redata: SCF convergence failure will abort job
redata: Performing Pulay mixing using    =    10 iterations
redata: Mix DM in first SCF step ?       =     F
redata: Write Pulay info on disk?        =     F
redata: Discard 1st Pulay DM after  kick =     F
redata: New DM Mixing Weight             =     0.0500
redata: New DM Occupancy tolerance       = 0.000000000001
redata: No kicks to SCF
redata: DM Mixing Weight for Kicks       =     0.5000
redata: DM Tolerance for SCF             =     0.000100
redata: Require Energy convergence for SCF =     F
redata: DM Energy tolerance for SCF      =     0.000100 eV
redata: Require Harris convergence for SCF =     F
redata: DM Harris energy tolerance for SCF =     0.000100 eV
redata: Using Saved Data (generic)   =     F
redata: Use continuation files for DM    =     T
redata: Neglect nonoverlap interactions  =     F
redata: Method of Calculation            =     Diagonalization
redata: Divide and Conquer               =     T
redata: Electronic Temperature           =     0.0019  Ry
redata: Fix the spin of the system       =     F
redata: Dynamics option                  =     Verlet MD run
redata: Initial MD time step             =        1
redata:   Final MD time step             =        1
redata: Length of MD time step           =     1.0000  fs
redata: Initial Temperature of MD run    =     0.0000  K
redata: Perform a MD quench              =     F
redata: ***********************************************************************
Total number of electrons:   286.000000
Total ionic charge:   286.000000

* ProcessorY, Blocksize:    3  24

k-point displ. along   1 input, could be:     0.50    0.00
k-point displ. along   2 input, could be:     0.50    0.00
 Kpoints in:          231 . Kpoints trimmed:          231

siesta: k-grid: Number of k-points =   231
siesta: k-grid: Cutoff (effective) =     5.000 Ang
siesta: k-grid: Supercell and displacements
siesta: k-grid:   21   0   0      0.500
siesta: k-grid:    0  21   0      0.500
siesta: k-grid:    0   0   1      0.000
Naive supercell factors:     2    2    2

superc: Internal auxiliary supercell:     2 x     2 x     2  =       8
superc: Number of atoms, orbitals, and projectors:    576   7488   9216

* Maximum dynamic memory allocated =     4 MB

siesta:                 ==============================
                            Begin MD step =      1
                        ==============================

superc: Internal auxiliary supercell:     2 x     2 x     2  =       8
superc: Number of atoms, orbitals, and projectors:    576   7488   9216

outcell: Unit cell vectors (Ang):
       14.785000    0.000000    0.000000
        7.393000   12.805052    0.000000
        0.000000    0.000000   10.000000

outcell: Cell vector modules (Ang)   :   14.785000   14.786000   10.000000
outcell: Cell angles (23,13,12) (deg):     90.0000     90.0000     60.0000
outcell: Cell volume (Ang**3)        :   1893.2269
New_DM. Step:     1
Initializing Density Matrix...

iodm: Reading Density Matrix from files

InitMesh: MESH =   120 x   120 x    90 =     1296000
InitMesh: Mesh cutoff (required, used) =   200.000   223.865 Ry

* Maximum dynamic memory allocated =   145 MB

stepf: Fermi-Dirac step function

siesta: Program's energy decomposition (eV):
siesta: Ebs     =     -3883.448938
siesta: Eions   =     18146.897649
siesta: Ena     =      3930.204851
siesta: Ekin    =      7735.918596
siesta: Enl     =      -770.086713
siesta: DEna    =      -297.913038
siesta: DUscf   =        27.537486
siesta: DUext   =         0.000000
siesta: Exc     =     -4046.403941
siesta: eta*DQ  =         0.000000
siesta: Emadel  =         0.000000
siesta: Emeta   =         0.000000
siesta: Emolmec =         0.000000
siesta: Ekinion =         0.000000
siesta: Eharris =    -11567.640261
siesta: Etot    =    -11567.640406
siesta: FreeEng =    -11567.640406

siesta: iscf   Eharris(eV)      E_KS(eV)   FreeEng(eV)   dDmax  Ef(eV)
siesta:    1   -11567.6403   -11567.6404   -11567.6404  0.0000 -5.3342
timer: Routine,Calls,Time,% = IterSCF        1    1171.691  98.92
elaps: Routine,Calls,Wall,% = IterSCF        1      97.879  98.92

siesta: E_KS(eV) =           -11567.6403

siesta: E_KS - E_eggbox =    -11567.6403

siesta: Atomic forces (eV/Ang):
----------------------------------------
   Tot    0.192934   -0.269161    0.000000
----------------------------------------
   Max    3.375010
   Res    0.584137    sqrt( Sum f_i^2 / 3N )
----------------------------------------
   Max    3.375010    constrained

Stress-tensor-Voigt (kbar):      -54.17      -53.01       -0.05       -0.41        0.00        0.00
(Free)E + p*V (eV/cell)   -11525.4167
Target enthalpy (eV/cell)   -11567.6514

siesta: Stress tensor (static) (eV/Ang**3):
        -0.033812   -0.000258    0.000000
        -0.000258   -0.033083    0.000000
         0.000000    0.000000   -0.000030

siesta: Pressure (static):         35.74227386  kBar

siesta: Stress tensor (total) (eV/Ang**3):
        -0.033812   -0.000258    0.000000
        -0.000258   -0.033083    0.000000
         0.000000    0.000000   -0.000030

siesta: Pressure (total):         35.74227386  kBar

siesta: Temp_ion =       0.000 K

* Maximum dynamic memory allocated =   240 MB

siesta: Program's energy decomposition (eV):
siesta: Ebs     =     -3883.448938
siesta: Eions   =     18146.897649
siesta: Ena     =      3930.204851
siesta: Ekin    =      7735.914448
siesta: Enl     =      -770.085799
siesta: DEna    =      -297.910177
siesta: DUscf   =        27.537107
siesta: DUext   =         0.000000
siesta: Exc     =     -4046.403040
siesta: eta*DQ  =         0.000000
siesta: Emadel  =         0.000000
siesta: Emeta   =         0.000000
siesta: Emolmec =         0.000000
siesta: Ekinion =         0.000000
siesta: Eharris =    -11567.640261
siesta: Etot    =    -11567.640259
siesta: FreeEng =    -11567.651424

siesta: Final energy (eV):
siesta:  Band Struct. =   -3883.448938
siesta:       Kinetic =    7735.914448
siesta:       Hartree =   22791.267723
siesta:    Ext. field =       0.000000
siesta:   Exch.-corr. =   -4046.403040
siesta:  Ion-electron =  -52699.904599
siesta:       Ion-ion =   14651.485209
siesta:       Ekinion =       0.000000
siesta:         Total =  -11567.640259

siesta: Atomic forces (eV/Ang):
siesta:      1   -0.005575   -0.025274    0.000000
siesta:      2    0.019639   -0.029129    0.000000
siesta:      3    2.933058    1.681946    0.000000
siesta:      4   -0.451648   -0.270825    0.000000
siesta:      5    0.208038   -0.111218    0.000000
siesta:      6    0.050584   -0.063367    0.000000
siesta:      7    0.022423   -0.183125    0.000000
siesta:      8   -0.001266   -0.080188    0.000000
siesta:      9    0.052777    0.015469    0.000000
siesta:     10    0.008354   -0.278872    0.000000
siesta:     11    0.082602    0.081579    0.000000
siesta:     12   -0.512788   -0.282183    0.000000
siesta:     13    0.012299    0.312298    0.000000
siesta:     14    0.466483   -0.273574    0.000000
siesta:     15   -0.009792   -3.367602    0.000000
siesta:     16   -0.023221    0.565389    0.000000
siesta:     17   -0.001534   -0.279294    0.000000
siesta:     18    0.042612    0.562767    0.000000
siesta:     19   -2.936053    1.679582    0.000000
siesta:     20    2.973896    1.678676    0.000000
siesta:     21   -0.061801    0.569406    0.000000
siesta:     22   -0.004377   -0.281379    0.000000
siesta:     23    0.043130    0.563636    0.000000
siesta:     24   -2.921115    1.675106    0.000000
siesta:     25    0.514640   -0.275633    0.000000
siesta:     26   -0.090797    0.160441    0.000000
siesta:     27    0.005852   -0.042769    0.000000
siesta:     28    0.087030    0.159272    0.000000
siesta:     29   -0.509813   -0.281762    0.000000
siesta:     30    0.028663    0.309512    0.000000
siesta:     31    0.488053   -0.272614    0.000000
siesta:     32   -0.091052    0.159622    0.000000
siesta:     33    0.005732   -0.042743    0.000000
siesta:     34    0.086308    0.159161    0.000000
siesta:     35    0.038517    0.011348    0.000000
siesta:     36   -0.003546    0.038851    0.000000
siesta:     37   -0.038582    0.006041    0.000000
siesta:     38   -0.071127    0.086928    0.000000
siesta:     39    0.008150   -0.278306    0.000000
siesta:     40    0.109147    0.079954    0.000000
siesta:     41    0.022875    0.014206    0.000000
siesta:     42   -0.005963    0.037703    0.000000
siesta:     43   -0.007026   -0.010223    0.000000
siesta:     44   -0.042128    0.021951    0.000000
siesta:     45    0.020734   -0.079677    0.000000
siesta:     46    0.028790    0.015082    0.000000
siesta:     47   -0.043056   -0.071272    0.000000
siesta:     48    0.036123    0.020331    0.000000
siesta:     49   -0.048905   -0.062033    0.000000
siesta:     50   -0.152794   -0.011999    0.000000
siesta:     51    0.008519    0.010146    0.000000
siesta:     52    0.188208   -0.019905    0.000000
siesta:     53    0.486068   -0.278237    0.000000
siesta:     54    0.026752   -3.375010    0.000000
siesta:     55   -0.493396   -0.267091    0.000000
siesta:     56    0.164563   -0.108813    0.000000
siesta:     57   -0.039104    0.005416    0.000000
siesta:     58   -0.071420    0.087286    0.000000
siesta:     59    0.006893   -0.015524    0.000000
siesta:     60   -0.041300    0.020339    0.000000
siesta:     61    0.020282   -0.056327    0.000000
siesta:     62   -0.007203   -0.181381    0.000000
siesta:     63    0.016548   -0.078617    0.000000
siesta:     64   -0.001475    0.022881    0.000000
siesta:     65   -0.036103   -0.065344    0.000000
siesta:     66   -0.151077   -0.012175    0.000000
siesta:     67    0.007285    0.267477    0.000000
siesta:     68   -0.177434   -0.105996    0.000000
siesta:     69    0.006475    0.010690    0.000000
siesta:     70    0.147575   -0.012152    0.000000
siesta:     71   -0.033575    0.273642    0.000000
siesta:     72   -0.196697   -0.101662    0.000000
siesta: ----------------------------------------
siesta:    Tot    0.192934   -0.269161    0.000000

siesta: Stress tensor (static) (eV/Ang**3):
siesta:    -0.033812   -0.000258    0.000000
siesta:    -0.000258   -0.033083    0.000000
siesta:     0.000000    0.000000   -0.000030

siesta: Cell volume =       1893.226895 Ang**3

siesta: Pressure (static):
siesta:                Solid            Molecule  Units
siesta:           0.00024297          0.00047817  Ry/Bohr**3
siesta:           0.02230833          0.04390380  eV/Ang**3
siesta:          35.74227386         70.34240800  kBar
(Free)E+ p_basis*V_orbitals  =      -11536.281898
(Free)Eharris+ p_basis*V_orbitals  =      -11536.281753

siesta: Electric dipole (a.u.)  =    0.000000    0.000000    0.000000
siesta: Electric dipole (Debye) =    0.000000    0.000000    0.000000

* Maximum dynamic memory allocated : Node    0 =   240 MB
* Maximum dynamic memory allocated : Node    1 =   149 MB
* Maximum dynamic memory allocated : Node    2 =   151 MB
* Maximum dynamic memory allocated : Node    3 =   228 MB
* Maximum dynamic memory allocated : Node    4 =   232 MB
* Maximum dynamic memory allocated : Node    5 =   144 MB
* Maximum dynamic memory allocated : Node    6 =   145 MB
* Maximum dynamic memory allocated : Node    7 =   225 MB
* Maximum dynamic memory allocated : Node    8 =   233 MB
* Maximum dynamic memory allocated : Node    9 =   144 MB
* Maximum dynamic memory allocated : Node   10 =   146 MB
* Maximum dynamic memory allocated : Node   11 =   227 MB

* Maximum memory occured during cdiag                         

timer: CPU execution times:
timer:  Routine       Calls   Time/call    Tot.time        %
timer:  siesta            1    1310.470    1310.470   100.00
timer:  Setup             1       3.431       3.431     0.26
timer:  bands             1       0.014       0.014     0.00
timer:  writewave         1       0.021       0.021     0.00
timer:  KSV_init          1       0.008       0.008     0.00
timer:  IterMD            1    1300.487    1300.487    99.24
timer:  hsparse           1       0.291       0.291     0.02
timer:  overlap           1       4.825       4.825     0.37
timer:  IterSCF           1    1171.691    1171.691    89.41
timer:  kinefsm           2       2.451       4.902     0.37
timer:  nlefsm            2      19.302      38.603     2.95
timer:  DHSCF             2      91.015     182.029    13.89
timer:  DHSCF1            1       1.192       1.192     0.09
timer:  DHSCF2            1      30.523      30.523     2.33
timer:  REORD            18       0.003       0.058     0.00
timer:  POISON            3       0.472       1.415     0.11
timer:  DHSCF3            2      63.459     126.918     9.68
timer:  rhoofd            2      12.763      25.526     1.95
timer:  cellXC            2       2.424       4.847     0.37
timer:  vmat              2      31.405      62.810     4.79
timer:  MolMec            2       0.000       0.000     0.00
timer:  diagon            1    1034.953    1034.953    78.98
timer:  cdiag            40      17.810     685.532    52.31
timer:  cdiag1           40       0.873      33.609     2.56
timer:  cdiag2           40       3.020     116.218     8.87
timer:  cdiag3           40      13.720     528.122    40.30
timer:  cdiag4           40       0.193       7.447     0.57
timer:  DHSCF4            1      23.345      23.345     1.78
timer:  dfscf             1      21.356      21.356     1.63
timer:  overfsm           1       0.280       0.280     0.02
timer:  optical           1       6.000       6.000     0.46
  

elaps: ELAPSED times:
elaps:  Routine       Calls   Time/call    Tot.time        %
elaps:  siesta            1     109.471     109.471   100.00
elaps:  Setup             1       0.287       0.287     0.26
elaps:  bands             1       0.001       0.001     0.00
elaps:  writewave         1       0.002       0.002     0.00
elaps:  KSV_init          1       0.000       0.000     0.00
elaps:  IterMD            1     108.637     108.637    99.24
elaps:  hsparse           1       0.028       0.028     0.03
elaps:  overlap           1       0.712       0.712     0.65
elaps:  IterSCF           1      97.879      97.879    89.41
elaps:  kinefsm           2       0.364       0.728     0.67
elaps:  nlefsm            2       1.819       3.637     3.32
elaps:  DHSCF             2       8.401      16.803    15.35
elaps:  DHSCF1            1       0.102       0.102     0.09
elaps:  DHSCF2            1       2.548       2.548     2.33
elaps:  REORD            18       0.000       0.005     0.00
elaps:  POISON            3       0.040       0.120     0.11
elaps:  DHSCF3            2       5.300      10.600     9.68
elaps:  rhoofd            2       1.889       3.778     3.45
elaps:  cellXC            2       0.202       0.405     0.37
elaps:  vmat              2       2.623       5.246     4.79
elaps:  MolMec            2       0.000       0.000     0.00
elaps:  diagon            1      86.457      86.457    78.98
elaps:  cdiag            40       1.473      58.920    53.82
elaps:  cdiag1           40       0.069       2.774     2.53
elaps:  cdiag2           40       0.241       9.630     8.80
elaps:  cdiag3           40       1.145      45.814    41.85
elaps:  cdiag4           40       0.017       0.691     0.63
elaps:  DHSCF4            1       3.548       3.548     3.24
elaps:  dfscf             1       3.307       3.307     3.02
elaps:  overfsm           1       0.031       0.031     0.03
elaps:  optical           1       0.000       0.000     0.00
  
>> End of run:   6-APR-2016  14:01:59
