Siesta Version:                                        siesta-3.2-pl-3
Architecture  : x86_64-unknown-linux-gnu--unknown
Compiler flags: mpiifort -g -O2 -fPIC -xSSE4.1 -fp-model source -shared-intel 
PARALLEL version

* Running on   12 nodes in parallel
>> Start of run:   6-MAY-2016   5:03:10

                           ***********************       
                           *  WELCOME TO SIESTA  *       
                           ***********************       

reinit: Reading from standard input
************************** Dump of input data file ****************************
#(1) General system descriptors
SystemName            GRP_doping    # Descriptive name of the system
SystemLabel           GRP_doping    # Short name for naming files
%include STRUCT.fdf
%include KPT.fdf
%include BASIS.fdf
#%include TS.fdf # for transiesta calculation
#(4) DFT, Grid, SCF
XC.functional         GGA           # LDA or GGA (default = LDA)
XC.authors            PBE           # CA (Ceperley-Aldr) = PZ
                                    #    (Perdew-Zunger) - LDA - Default
                                    # PW92 (Perdew-Wang-92) - LDA
                                    # PBE (Perdew-Burke-Ernzerhof) - GGA
MeshCutoff            200.000000    Ry      # Default: 50.0 Ry ~ 0.444 Bohr
                                    #         100.0 Ry ~ 0.314 Bohr
MaxSCFIterations      500           # Default: 50
DM.MixingWeight       0.05          # Default: 0.25
DM.NumberPulay        10            # Default: 0
DM.PulayOnFile        F             # SystemLabel.P1, SystemLabel.P2
DM.Tolerance          1.d-4         # Default: 1.d-4
DM.UseSaveDM          .true.        # because of the bug
SCFMustConverge       .true.
NeglNonOverlapInt     F             # Default: F
#(5) Eigenvalue problem: order-N or diagonalization
SolutionMethod        Diagon        # or Transiesta
ElectronicTemperature 300.0 K       # Default: 300.0 K
#(6) Molecular dynamics and relaxations
#MD.TypeOfRun          CG            # Type of dynamics:
#MD.VariableCell       F
#MD.NumCGsteps         0           # 0 for single-point / 100 for gopt
#MD.MaxCGDispl         0.2 Bohr      # Default: 0.2 Bohr
#MD.MaxForceTol        0.02 eV/Ang   # Default: 0.04 eV/Ang
#MD.MaxStressTol       1.0 GPa       # Default: 1.0 GPa
# Geometry Constraints
#%block GeometryConstraints
#	position from 1 to 44
#%endblock GeometryConstraints
BandLinesScale   pi/a
%block BandLines
 1   0.00000000  0.00000000  0.00000000
50   0.00000000  0.07809418  0.00000000
50   0.04509075  0.07809242  0.00000000
20   0.00000000  0.00000000  0.00000000
%endblock BandLines
************************** End of input data file *****************************

reinit: -----------------------------------------------------------------------
reinit: System Name: GRP_doping
reinit: -----------------------------------------------------------------------
reinit: System Label: GRP_doping                                                  
reinit: -----------------------------------------------------------------------

initatom: Reading input for the pseudopotentials and atomic orbitals ----------
 Species number:            1  Label: B Atomic number:           5
 Species number:            2  Label: C Atomic number:           6
Ground state valence configuration:   2s02  2p01
Reading pseudopotential information in formatted form from B.psf

Valence configuration for pseudopotential generation:
2s( 2.00) rc: 1.74
2p( 1.00) rc: 1.74
3d( 0.00) rc: 1.74
4f( 0.00) rc: 1.74
Ground state valence configuration:   2s02  2p02
Reading pseudopotential information in formatted form from C.psf

Valence configuration for pseudopotential generation:
2s( 2.00) rc: 1.54
2p( 2.00) rc: 1.54
3d( 0.00) rc: 1.54
4f( 0.00) rc: 1.54
For B, standard SIESTA heuristics set lmxkb to 3
 (one more than the basis l, including polarization orbitals).
Use PS.lmax or PS.KBprojectors blocks to override.
For C, standard SIESTA heuristics set lmxkb to 3
 (one more than the basis l, including polarization orbitals).
Use PS.lmax or PS.KBprojectors blocks to override.

<basis_specs>
===============================================================================
B                    Z=   5    Mass=  10.810        Charge= 0.17977+309
Lmxo=1 Lmxkb= 3    BasisType=split      Semic=F
L=0  Nsemic=0  Cnfigmx=2
          n=1  nzeta=2  polorb=0
            splnorm:   0.15000    
               vcte:    0.0000    
               rinn:    0.0000    
                rcs:    0.0000      0.0000    
            lambdas:    1.0000      1.0000    
L=1  Nsemic=0  Cnfigmx=2
          n=1  nzeta=2  polorb=1
            splnorm:   0.15000    
               vcte:    0.0000    
               rinn:    0.0000    
                rcs:    0.0000      0.0000    
            lambdas:    1.0000      1.0000    
-------------------------------------------------------------------------------
L=0  Nkbl=1  erefs: 0.17977+309
L=1  Nkbl=1  erefs: 0.17977+309
L=2  Nkbl=1  erefs: 0.17977+309
L=3  Nkbl=1  erefs: 0.17977+309
===============================================================================
</basis_specs>

atom: Called for B                     (Z =   5)

read_vps: Pseudopotential generation method:
read_vps: ATM3      Troullier-Martins                       
Total valence charge:    3.00000

read_vps: Pseudopotential includes a core correction:
read_vps: Pseudo-core for xc-correction

xc_check: Exchange-correlation functional:
xc_check: GGA Perdew, Burke & Ernzerhof 1996
V l=0 = -2*Zval/r beyond r=  1.7165
V l=1 = -2*Zval/r beyond r=  1.7165
V l=2 = -2*Zval/r beyond r=  1.7165
V l=3 = -2*Zval/r beyond r=  1.6951
All V_l potentials equal beyond r=  1.7165
This should be close to max(r_c) in ps generation
All pots = -2*Zval/r beyond r=  1.7165

VLOCAL1: 99.0% of the norm of Vloc inside     14.733 Ry
VLOCAL1: 99.9% of the norm of Vloc inside     33.577 Ry
atom: Maximum radius for 4*pi*r*r*local-pseudopot. charge    2.04484
atom: Maximum radius for r*vlocal+2*Zval:    1.75994
GHOST: No ghost state for L =  0
GHOST: No ghost state for L =  1
GHOST: No ghost state for L =  2
GHOST: No ghost state for L =  3

KBgen: Kleinman-Bylander projectors: 
   l= 0   rc=  1.897051   el= -0.693730   Ekb=  4.595746   kbcos=  0.286105
   l= 1   rc=  1.920920   el= -0.265236   Ekb= -2.350715   kbcos= -0.315747
   l= 2   rc=  2.044840   el=  0.002055   Ekb= -0.690767   kbcos= -0.013822
   l= 3   rc=  2.149707   el=  0.003188   Ekb= -0.315358   kbcos= -0.002055

KBgen: Total number of  Kleinman-Bylander projectors:   16
atom: -------------------------------------------------------------------------

atom: SANKEY-TYPE ORBITALS:
atom: Selected multiple-zeta basis: split     

SPLIT: Orbitals with angular momentum L= 0

SPLIT: Basis orbitals for state 2s

SPLIT: PAO cut-off radius determined from an
SPLIT: energy shift=  0.007350 Ry

   izeta = 1
                 lambda =    1.000000
                     rc =    5.422032
                 energy =   -0.686029
                kinetic =    0.576707
    potential(screened) =   -1.262736
       potential(ionic) =   -3.271094

   izeta = 2
                 rmatch =    4.222573
              splitnorm =    0.150000
                 energy =   -0.602132
                kinetic =    0.858975
    potential(screened) =   -1.461107
       potential(ionic) =   -3.582536

SPLIT: Orbitals with angular momentum L= 1

SPLIT: Basis orbitals for state 2p

SPLIT: PAO cut-off radius determined from an
SPLIT: energy shift=  0.007350 Ry

   izeta = 1
                 lambda =    1.000000
                     rc =    6.790259
                 energy =   -0.258578
                kinetic =    1.481412
    potential(screened) =   -1.739989
       potential(ionic) =   -3.657461

   izeta = 2
                 rmatch =    4.608740
              splitnorm =    0.150000
                 energy =   -0.173757
                kinetic =    2.186690
    potential(screened) =   -2.360447
       potential(ionic) =   -4.464260

POLgen: Perturbative polarization orbital with L=  2

POLgen: Polarization orbital for state 2p

   izeta = 1
                     rc =    6.790259
                 energy =    0.684082
                kinetic =    1.471481
    potential(screened) =   -0.787399
       potential(ionic) =   -2.406985
atom: Total number of Sankey-type orbitals: 13

atm_pop: Valence configuration (for local Pseudopot. screening):
 2s( 2.00)                                                            
 2p( 1.00)                                                            
Vna: chval, zval:    3.00000   3.00000

Vna:  Cut-off radius for the neutral-atom potential:   6.790259
comcore: Pseudo-core radius Rcore=  2.122997

atom: _________________________________________________________________________

<basis_specs>
===============================================================================
C                    Z=   6    Mass=  12.010        Charge= 0.17977+309
Lmxo=1 Lmxkb= 3    BasisType=split      Semic=F
L=0  Nsemic=0  Cnfigmx=2
          n=1  nzeta=2  polorb=0
            splnorm:   0.15000    
               vcte:    0.0000    
               rinn:    0.0000    
                rcs:    0.0000      0.0000    
            lambdas:    1.0000      1.0000    
L=1  Nsemic=0  Cnfigmx=2
          n=1  nzeta=2  polorb=1
            splnorm:   0.15000    
               vcte:    0.0000    
               rinn:    0.0000    
                rcs:    0.0000      0.0000    
            lambdas:    1.0000      1.0000    
-------------------------------------------------------------------------------
L=0  Nkbl=1  erefs: 0.17977+309
L=1  Nkbl=1  erefs: 0.17977+309
L=2  Nkbl=1  erefs: 0.17977+309
L=3  Nkbl=1  erefs: 0.17977+309
===============================================================================
</basis_specs>

atom: Called for C                     (Z =   6)

read_vps: Pseudopotential generation method:
read_vps: ATM3      Troullier-Martins                       
Total valence charge:    4.00000

read_vps: Pseudopotential includes a core correction:
read_vps: Pseudo-core for xc-correction

xc_check: Exchange-correlation functional:
xc_check: GGA Perdew, Burke & Ernzerhof 1996
V l=0 = -2*Zval/r beyond r=  1.5227
V l=1 = -2*Zval/r beyond r=  1.5227
V l=2 = -2*Zval/r beyond r=  1.5227
V l=3 = -2*Zval/r beyond r=  1.5038
All V_l potentials equal beyond r=  1.5227
This should be close to max(r_c) in ps generation
All pots = -2*Zval/r beyond r=  1.5227

VLOCAL1: 99.0% of the norm of Vloc inside     18.722 Ry
VLOCAL1: 99.9% of the norm of Vloc inside     42.668 Ry
atom: Maximum radius for 4*pi*r*r*local-pseudopot. charge    1.83678
atom: Maximum radius for r*vlocal+2*Zval:    1.58088
GHOST: No ghost state for L =  0
GHOST: No ghost state for L =  1
GHOST: No ghost state for L =  2
GHOST: No ghost state for L =  3

KBgen: Kleinman-Bylander projectors: 
   l= 0   rc=  1.704034   el= -1.009801   Ekb=  5.335044   kbcos=  0.316824
   l= 1   rc=  1.704034   el= -0.388707   Ekb= -3.785862   kbcos= -0.366464
   l= 2   rc=  1.791422   el=  0.001971   Ekb= -0.970471   kbcos= -0.009212
   l= 3   rc=  1.859892   el=  0.003065   Ekb= -0.399525   kbcos= -0.001223

KBgen: Total number of  Kleinman-Bylander projectors:   16
atom: -------------------------------------------------------------------------

atom: SANKEY-TYPE ORBITALS:
atom: Selected multiple-zeta basis: split     

SPLIT: Orbitals with angular momentum L= 0

SPLIT: Basis orbitals for state 2s

SPLIT: PAO cut-off radius determined from an
SPLIT: energy shift=  0.007350 Ry

   izeta = 1
                 lambda =    1.000000
                     rc =    4.632753
                 energy =   -1.002270
                kinetic =    0.855760
    potential(screened) =   -1.858031
       potential(ionic) =   -5.417575

   izeta = 2
                 rmatch =    3.431921
              splitnorm =    0.150000
                 energy =   -0.867111
                kinetic =    1.300804
    potential(screened) =   -2.167915
       potential(ionic) =   -5.962684

SPLIT: Orbitals with angular momentum L= 1

SPLIT: Basis orbitals for state 2p

SPLIT: PAO cut-off radius determined from an
SPLIT: energy shift=  0.007350 Ry

   izeta = 1
                 lambda =    1.000000
                     rc =    5.658549
                 energy =   -0.381140
                kinetic =    2.399701
    potential(screened) =   -2.780841
       potential(ionic) =   -6.206085

   izeta = 2
                 rmatch =    3.653288
              splitnorm =    0.150000
                 energy =   -0.249149
                kinetic =    3.542762
    potential(screened) =   -3.791911
       potential(ionic) =   -7.581078

POLgen: Perturbative polarization orbital with L=  2

POLgen: Polarization orbital for state 2p

   izeta = 1
                     rc =    5.658549
                 energy =    1.109913
                kinetic =    2.304789
    potential(screened) =   -1.194876
       potential(ionic) =   -4.013592
atom: Total number of Sankey-type orbitals: 13

atm_pop: Valence configuration (for local Pseudopot. screening):
 2s( 2.00)                                                            
 2p( 2.00)                                                            
Vna: chval, zval:    4.00000   4.00000

Vna:  Cut-off radius for the neutral-atom potential:   5.658549
comcore: Pseudo-core radius Rcore=  1.791422

atom: _________________________________________________________________________

prinput: Basis input ----------------------------------------------------------

PAO.BasisType split     

%block ChemicalSpeciesLabel
    1    5 B                       # Species index, atomic number, species label
    2    6 C                       # Species index, atomic number, species label
%endblock ChemicalSpeciesLabel

%block PAO.Basis                 # Define Basis set
B                     2                    # Species label, number of l-shells
 n=2   0   2                         # n, l, Nzeta 
   5.422      4.223   
   1.000      1.000   
 n=2   1   2 P   1                   # n, l, Nzeta, Polarization, NzetaPol
   6.790      4.609   
   1.000      1.000   
C                     2                    # Species label, number of l-shells
 n=2   0   2                         # n, l, Nzeta 
   4.633      3.432   
   1.000      1.000   
 n=2   1   2 P   1                   # n, l, Nzeta, Polarization, NzetaPol
   5.659      3.653   
   1.000      1.000   
%endblock PAO.Basis

prinput: ----------------------------------------------------------------------

coor:   Atomic-coordinates input format  =     Fractional

siesta: Atomic coordinates (Bohr) and species
siesta:      6.95932  17.38257   0.00000  1        1
siesta:      9.28770  18.72698   0.00000  1        2
siesta:      9.28770  21.41544   0.00000  1        3
siesta:      2.30256  17.38257   0.00000  1        4
siesta:      4.63094  18.72698   0.00000  1        5
siesta:      6.95932  22.75985   0.00000  1        6
siesta:      6.95932  25.44831   0.00000  1        7
siesta:     -2.35420  17.38257   0.00000  1        8
siesta:     -0.02582  18.72698   0.00000  1        9
siesta:     -7.01096  17.38257   0.00000  1       10
siesta:     -4.68258  18.72698   0.00000  1       11
siesta:      4.63094  26.79272   0.00000  1       12
siesta:      4.63094  29.48119   0.00000  1       13
siesta:      2.30256  30.82560   0.00000  1       14
siesta:      2.30256  33.51406   0.00000  1       15
siesta:     -0.02582   2.59549   0.00000  2       16
siesta:     -0.02582   5.28395   0.00000  2       17
siesta:     -2.35420  38.89134   0.00000  2       18
siesta:     -2.35420  41.57980   0.00000  2       19
siesta:      2.30256  38.89134   0.00000  2       20
siesta:      2.30256  41.57980   0.00000  2       21
siesta:      4.63094  34.85847   0.00000  2       22
siesta:      4.63094  37.54693   0.00000  2       23
siesta:      6.95932  30.82560   0.00000  2       24
siesta:      6.95932  33.51406   0.00000  2       25
siesta:      9.28770  26.79272   0.00000  2       26
siesta:      9.28770  29.48119   0.00000  2       27
siesta:     -4.68258  34.85847   0.00000  2       28
siesta:     -4.68258  37.54693   0.00000  2       29
siesta:      2.30256   6.62836   0.00000  2       30
siesta:      2.30256   9.31683   0.00000  2       31
siesta:      4.63094  10.66124   0.00000  2       32
siesta:      4.63094  13.34970   0.00000  2       33
siesta:      6.95932  14.69411   0.00000  2       34
siesta:     11.61608  22.75985   0.00000  2       35
siesta:     11.61608  25.44831   0.00000  2       36
siesta:     -2.35420   6.62836   0.00000  2       37
siesta:     -2.35420   9.31683   0.00000  2       38
siesta:     -0.02582  10.66124   0.00000  2       39
siesta:     -0.02582  13.34970   0.00000  2       40
siesta:      2.30256  14.69411   0.00000  2       41
siesta:      4.63094  21.41544   0.00000  2       42
siesta:     -4.68258  10.66124   0.00000  2       43
siesta:     -4.68258  13.34970   0.00000  2       44
siesta:     -2.35420  14.69411   0.00000  2       45
siesta:     -0.02582  21.41544   0.00000  2       46
siesta:      2.30256  22.75985   0.00000  2       47
siesta:      2.30256  25.44831   0.00000  2       48
siesta:     -7.01096  14.69411   0.00000  2       49
siesta:     -4.68258  21.41544   0.00000  2       50
siesta:     -2.35420  22.75985   0.00000  2       51
siesta:     -2.35420  25.44831   0.00000  2       52
siesta:     -9.33934  18.72698   0.00000  2       53
siesta:     -9.33934  21.41544   0.00000  2       54
siesta:     -7.01096  22.75985   0.00000  2       55
siesta:     -7.01096  25.44831   0.00000  2       56
siesta:    -11.66772  22.75985   0.00000  2       57
siesta:    -11.66772  25.44831   0.00000  2       58
siesta:     -9.33934  26.79272   0.00000  2       59
siesta:     -9.33934  29.48119   0.00000  2       60
siesta:     -0.02582  26.79272   0.00000  2       61
siesta:     -0.02582  29.48119   0.00000  2       62
siesta:     -4.68258  26.79272   0.00000  2       63
siesta:     -4.68258  29.48119   0.00000  2       64
siesta:     -2.35420  30.82560   0.00000  2       65
siesta:     -2.35420  33.51406   0.00000  2       66
siesta:     -7.01096  30.82560   0.00000  2       67
siesta:     -7.01096  33.51406   0.00000  2       68
siesta:     -0.02582  34.85847   0.00000  2       69
siesta:     -0.02582  37.54693   0.00000  2       70
siesta:     -0.02582  42.92421   0.00000  2       71
siesta:     -0.02582  45.61267   0.00000  2       72

siesta: System type = slab      

initatomlists: Number of atoms, orbitals, and projectors:     72   936  1152

siesta: ******************** Simulation parameters ****************************
siesta:
siesta: The following are some of the parameters of the simulation.
siesta: A complete list of the parameters used, including default values,
siesta: can be found in file out.fdf
siesta:
redata: Non-Collinear-spin run           =     F
redata: SpinPolarized (Up/Down) run      =     F
redata: Number of spin components        =     1
redata: Long output                      =     F
redata: Number of Atomic Species         =        2
redata: Charge density info will appear in .RHO file
redata: Write Mulliken Pop.              =     NO
redata: Mesh Cutoff                      =   200.0000  Ry
redata: Net charge of the system         =     0.0000 |e|
redata: Max. number of SCF Iter          =      500
redata: SCF convergence failure will abort job
redata: Performing Pulay mixing using    =    10 iterations
redata: Mix DM in first SCF step ?       =     F
redata: Write Pulay info on disk?        =     F
redata: Discard 1st Pulay DM after  kick =     F
redata: New DM Mixing Weight             =     0.0500
redata: New DM Occupancy tolerance       = 0.000000000001
redata: No kicks to SCF
redata: DM Mixing Weight for Kicks       =     0.5000
redata: DM Tolerance for SCF             =     0.000100
redata: Require Energy convergence for SCF =     F
redata: DM Energy tolerance for SCF      =     0.000100 eV
redata: Require Harris convergence for SCF =     F
redata: DM Harris energy tolerance for SCF =     0.000100 eV
redata: Using Saved Data (generic)   =     F
redata: Use continuation files for DM    =     T
redata: Neglect nonoverlap interactions  =     F
redata: Method of Calculation            =     Diagonalization
redata: Divide and Conquer               =     T
redata: Electronic Temperature           =     0.0019  Ry
redata: Fix the spin of the system       =     F
redata: Dynamics option                  =     Verlet MD run
redata: Initial MD time step             =        1
redata:   Final MD time step             =        1
redata: Length of MD time step           =     1.0000  fs
redata: Initial Temperature of MD run    =     0.0000  K
redata: Perform a MD quench              =     F
redata: ***********************************************************************
Total number of electrons:   273.000000
Total ionic charge:   273.000000

* ProcessorY, Blocksize:    3  24

k-point displ. along   1 input, could be:     0.50    0.00
k-point displ. along   2 input, could be:     0.50    0.00
 Kpoints in:          231 . Kpoints trimmed:          231

siesta: k-grid: Number of k-points =   231
siesta: k-grid: Cutoff (effective) =     5.000 Ang
siesta: k-grid: Supercell and displacements
siesta: k-grid:   21   0   0      0.500
siesta: k-grid:    0  21   0      0.500
siesta: k-grid:    0   0   1      0.000
Naive supercell factors:     2    2    2

superc: Internal auxiliary supercell:     2 x     2 x     2  =       8
superc: Number of atoms, orbitals, and projectors:    576   7488   9216

* Maximum dynamic memory allocated =     4 MB

siesta:                 ==============================
                            Begin MD step =      1
                        ==============================

superc: Internal auxiliary supercell:     2 x     2 x     2  =       8
superc: Number of atoms, orbitals, and projectors:    576   7488   9216

outcell: Unit cell vectors (Ang):
       12.804619    7.392750    0.000000
        0.000000   14.785500    0.000000
        0.000000    0.000000   10.000000

outcell: Cell vector modules (Ang)   :   14.785500   14.785500   10.000000
outcell: Cell angles (23,13,12) (deg):     90.0000     90.0000     60.0000
outcell: Cell volume (Ang**3)        :   1893.2269
New_DM. Step:     1
Initializing Density Matrix...

InitMesh: MESH =   120 x   120 x    90 =     1296000
InitMesh: Mesh cutoff (required, used) =   200.000   223.865 Ry

* Maximum dynamic memory allocated =   156 MB

stepf: Fermi-Dirac step function

siesta: Program's energy decomposition (eV):
siesta: Ebs     =     -5635.667070
siesta: Eions   =     16482.160403
siesta: Ena     =      4358.698177
siesta: Ekin    =      5587.107004
siesta: Enl     =       758.237314
siesta: DEna    =        -0.000010
siesta: DUscf   =         0.000000
siesta: DUext   =         0.000000
siesta: Exc     =     -4195.346950
siesta: eta*DQ  =         0.000000
siesta: Emadel  =         0.000000
siesta: Emeta   =         0.000000
siesta: Emolmec =         0.000000
siesta: Ekinion =         0.000000
siesta: Eharris =     -9687.393026
siesta: Etot    =     -9973.464867
siesta: FreeEng =     -9973.464867

siesta: iscf   Eharris(eV)      E_KS(eV)   FreeEng(eV)   dDmax  Ef(eV)
siesta:    1    -9687.3930    -9973.4649    -9973.4649  6.7484 -8.2885
timer: Routine,Calls,Time,% = IterSCF        1    3039.897  99.59
elaps: Routine,Calls,Wall,% = IterSCF        1     253.928  99.59
siesta:    2   -13393.0278    -9066.9675    -9066.9951 19.6330 -1.8847
siesta:    3    -9618.2320    -9817.2185    -9817.2542  3.4731 -7.0467
siesta:    4    -9599.5405    -9670.2567    -9670.3142  1.1642 -5.5849
siesta:    5    -9562.4642    -9629.3035    -9629.3570  0.9051 -5.3674
siesta:    6    -9546.4417    -9581.7304    -9581.7666  0.7415 -5.2136
siesta:    7    -9541.5667    -9566.5459    -9566.6039  0.6790 -5.0806
siesta:    8    -9539.2916    -9562.0736    -9562.1181  0.6598 -5.0921
siesta:    9    -9537.9179    -9549.1666    -9549.2361  0.4971 -5.0994
siesta:   10    -9537.3704    -9537.2708    -9537.3446  0.3994 -5.0395
siesta:   11    -9536.7969    -9523.6851    -9523.7700  0.2340 -4.9610
siesta:   12    -9537.6622    -9512.8495    -9512.9255  0.2193 -4.9320
siesta:   13    -9536.7472    -9512.6915    -9512.7632  0.1599 -4.9076
siesta:   14    -9536.1056    -9518.1714    -9518.2410  0.1227 -4.9340
siesta:   15    -9535.9298    -9519.8388    -9519.8995  0.1019 -4.9527
siesta:   16    -9535.8081    -9522.9164    -9522.9842  0.0927 -4.9860
siesta:   17    -9535.7352    -9525.1497    -9525.2137  0.0620 -4.9882
siesta:   18    -9535.7098    -9530.1936    -9530.2633  0.0405 -5.0132
siesta:   19    -9535.6938    -9532.9324    -9533.0007  0.0333 -5.0144
siesta:   20    -9535.6795    -9534.7689    -9534.8404  0.0273 -5.0155
siesta:   21    -9535.6775    -9535.7626    -9535.8332  0.0204 -5.0114
siesta:   22    -9535.6750    -9535.8891    -9535.9604  0.0166 -5.0060
siesta:   23    -9535.6676    -9535.6220    -9535.6934  0.0182 -4.9976
siesta:   24    -9535.6670    -9535.5262    -9535.5983  0.0164 -4.9948
siesta:   25    -9535.6667    -9535.6603    -9535.7317  0.0119 -4.9940
siesta:   26    -9535.6670    -9535.8418    -9535.9128  0.0069 -4.9966
siesta:   27    -9535.6659    -9535.8665    -9535.9373  0.0023 -4.9971
siesta:   28    -9535.6659    -9535.8629    -9535.9343  0.0019 -4.9974
siesta:   29    -9535.6659    -9535.8105    -9535.8819  0.0015 -4.9972
siesta:   30    -9535.6658    -9535.8231    -9535.8945  0.0010 -4.9978
siesta:   31    -9535.6658    -9535.7944    -9535.8658  0.0009 -4.9977
siesta:   32    -9535.6658    -9535.7626    -9535.8339  0.0007 -4.9977
siesta:   33    -9535.6658    -9535.7032    -9535.7745  0.0003 -4.9976
siesta:   34    -9535.6658    -9535.6821    -9535.7534  0.0003 -4.9975
siesta:   35    -9535.6658    -9535.6716    -9535.7429  0.0002 -4.9975
siesta:   36    -9535.6658    -9535.6659    -9535.7372  0.0001 -4.9974
siesta:   37    -9535.6658    -9535.6674    -9535.7387  0.0001 -4.9974

siesta: E_KS(eV) =            -9535.6651

siesta: E_KS - E_eggbox =     -9535.6651

siesta: Atomic forces (eV/Ang):
----------------------------------------
   Tot   -0.150454    0.064161    0.000000
----------------------------------------
   Max  558.328122
   Res  153.069933    sqrt( Sum f_i^2 / 3N )
----------------------------------------
   Max  558.328122    constrained

Stress-tensor-Voigt (kbar):     -798.44    -2755.88       -0.56       -6.75        0.00        0.00
(Free)E + p*V (eV/cell)    -8135.5316
Target enthalpy (eV/cell)    -9535.7364

siesta: Stress tensor (static) (eV/Ang**3):
        -0.498342   -0.004210    0.000000
        -0.004210   -1.720065    0.000000
         0.000000    0.000000   -0.000352

siesta: Pressure (static):       1184.96081569  kBar

siesta: Stress tensor (total) (eV/Ang**3):
        -0.498342   -0.004210    0.000000
        -0.004210   -1.720065    0.000000
         0.000000    0.000000   -0.000352

siesta: Pressure (total):       1184.96081569  kBar

siesta: Temp_ion =       0.000 K

* Maximum dynamic memory allocated =   167 MB
Computing bands...

siesta: Program's energy decomposition (eV):
siesta: Ebs     =     -4286.047865
siesta: Eions   =     16482.160403
siesta: Ena     =      4358.698177
siesta: Ekin    =      8506.091575
siesta: Enl     =      -860.104371
siesta: DEna    =      -796.544773
siesta: DUscf   =       105.980996
siesta: DUext   =         0.000000
siesta: Exc     =     -4367.626309
siesta: eta*DQ  =         0.000000
siesta: Emadel  =         0.000000
siesta: Emeta   =         0.000000
siesta: Emolmec =         0.000000
siesta: Ekinion =         0.000000
siesta: Eharris =     -9535.665825
siesta: Etot    =     -9535.665108
siesta: FreeEng =     -9535.736433

siesta: Final energy (eV):
siesta:  Band Struct. =   -4286.047865
siesta:       Kinetic =    8506.091575
siesta:       Hartree =   28010.294241
siesta:    Ext. field =       0.000000
siesta:   Exch.-corr. =   -4367.626309
siesta:  Ion-electron =  -64238.445430
siesta:       Ion-ion =   22554.020815
siesta:       Ekinion =       0.000000
siesta:         Total =   -9535.665108

siesta: Atomic forces (eV/Ang):
siesta:      1    3.008572   -7.709564    0.000000
siesta:      2    4.094839   -2.161610    0.000000
siesta:      3    8.603295    2.596272    0.000000
siesta:      4   16.661509   -3.462966    0.000000
siesta:      5   -0.832307    3.714635    0.000000
siesta:      6   -5.430098   -3.735780    0.000000
siesta:      7    3.227375    3.635911    0.000000
siesta:      8  -16.877884   -3.228299    0.000000
siesta:      9   -0.164333  413.466300    0.000000
siesta:     10   -8.551234   -4.272415    0.000000
siesta:     11    1.510706    3.965511    0.000000
siesta:     12   -4.273141   -3.354797    0.000000
siesta:     13    2.067095    3.239276    0.000000
siesta:     14   14.743547    2.384187    0.000000
siesta:     15   21.412103 -401.154186    0.000000
siesta:     16   -7.364266  546.269483    0.000000
siesta:     17    3.843555 -131.477305    0.000000
siesta:     18    1.821373  127.725464    0.000000
siesta:     19  -18.906772 -552.690051    0.000000
siesta:     20   -0.590764  126.755804    0.000000
siesta:     21   18.721358 -553.471110    0.000000
siesta:     22   25.677705    1.024801    0.000000
siesta:     23   29.902920 -551.246980    0.000000
siesta:     24    6.782379    3.110406    0.000000
siesta:     25   -2.238918    1.094641    0.000000
siesta:     26    6.106374    2.723966    0.000000
siesta:     27   -2.002288   -0.213659    0.000000
siesta:     28  -26.627370    3.799369    0.000000
siesta:     29  -32.384283 -549.361965    0.000000
siesta:     30   17.126559  407.801043    0.000000
siesta:     31   -0.399241 -124.404436    0.000000
siesta:     32   33.388137  551.829306    0.000000
siesta:     33   26.662195   -5.953189    0.000000
siesta:     34   -3.408920   -3.439490    0.000000
siesta:     35    2.484704    7.143912    0.000000
siesta:     36    0.425160   -6.093347    0.000000
siesta:     37  -14.875393  545.955048    0.000000
siesta:     38    1.966199 -127.366073    0.000000
siesta:     39   -3.223448  548.551063    0.000000
siesta:     40   -0.012411 -126.487525    0.000000
siesta:     41   24.200634  555.449468    0.000000
siesta:     42   -2.942158    2.793479    0.000000
siesta:     43  -32.420017  549.298119    0.000000
siesta:     44  -26.398547   -4.344617    0.000000
siesta:     45  -24.333330  556.275120    0.000000
siesta:     46    0.383786    3.318169    0.000000
siesta:     47   -1.845368   -0.859364    0.000000
siesta:     48   -3.719698   -0.128172    0.000000
siesta:     49    4.370859   -5.135457    0.000000
siesta:     50   -0.398944    3.518785    0.000000
siesta:     51    0.342524    0.337618    0.000000
siesta:     52    0.402640    0.665087    0.000000
siesta:     53    0.216317    3.294673    0.000000
siesta:     54   -3.346605   -2.389090    0.000000
siesta:     55    1.394818    1.217231    0.000000
siesta:     56    0.126426   -0.577852    0.000000
siesta:     57    0.111360    6.689859    0.000000
siesta:     58   -0.240418   -6.873811    0.000000
siesta:     59   -1.680694    2.576368    0.000000
siesta:     60    0.721590   -0.066860    0.000000
siesta:     61   -0.509930   -2.324846    0.000000
siesta:     62    5.967247 -558.328122    0.000000
siesta:     63   -0.489806    0.294021    0.000000
siesta:     64    1.121999   -2.080688    0.000000
siesta:     65  -22.015467    7.291194    0.000000
siesta:     66  -30.103730 -555.335004    0.000000
siesta:     67   -1.751120   -0.034795    0.000000
siesta:     68    2.644925    2.229609    0.000000
siesta:     69    7.483327  120.113469    0.000000
siesta:     70    0.097006 -546.057109    0.000000
siesta:     71    0.402927  128.626651    0.000000
siesta:     72   -0.017595 -404.890623    0.000000
siesta: ----------------------------------------
siesta:    Tot   -0.150454    0.064161    0.000000

siesta: Stress tensor (static) (eV/Ang**3):
siesta:    -0.498342   -0.004210    0.000000
siesta:    -0.004210   -1.720065    0.000000
siesta:     0.000000    0.000000   -0.000352

siesta: Cell volume =       1893.226884 Ang**3

siesta: Pressure (static):
siesta:                Solid            Molecule  Units
siesta:           0.00805504          0.11784362  Ry/Bohr**3
siesta:           0.73958637         10.82000013  eV/Ang**3
siesta:        1184.96081569      17335.73876677  kBar
(Free)E+ p_basis*V_orbitals  =       -9500.259515
(Free)Eharris+ p_basis*V_orbitals  =       -9500.257928

siesta: Electric dipole (a.u.)  =    0.000000    0.000000    0.000000
siesta: Electric dipole (Debye) =    0.000000    0.000000    0.000000

* Maximum dynamic memory allocated : Node    0 =   163 MB
* Maximum dynamic memory allocated : Node    1 =    65 MB
* Maximum dynamic memory allocated : Node    2 =    66 MB
* Maximum dynamic memory allocated : Node    3 =   150 MB
* Maximum dynamic memory allocated : Node    4 =   167 MB
* Maximum dynamic memory allocated : Node    5 =    62 MB
* Maximum dynamic memory allocated : Node    6 =    62 MB
* Maximum dynamic memory allocated : Node    7 =   158 MB
* Maximum dynamic memory allocated : Node    8 =   154 MB
* Maximum dynamic memory allocated : Node    9 =    61 MB
* Maximum dynamic memory allocated : Node   10 =    63 MB
* Maximum dynamic memory allocated : Node   11 =   146 MB

* Maximum memory occured during matrixMtoO                    

timer: CPU execution times:
timer:  Routine       Calls   Time/call    Tot.time        %
timer:  siesta            1  109639.243  109639.243   100.00
timer:  Setup             1       3.380       3.380     0.00
timer:  bands             3     225.931     677.793     0.62
timer:  writewave         1       0.024       0.024     0.00
timer:  KSV_init          1       0.007       0.007     0.00
timer:  IterMD            1  108951.103  108951.103    99.37
timer:  hsparse           1       0.286       0.286     0.00
timer:  overlap           1       7.210       7.210     0.01
timer:  IterSCF          37    2940.439  108796.232    99.23
timer:  kinefsm           2       3.668       7.335     0.01
timer:  nlefsm            2      20.248      40.496     0.04
timer:  DHSCF            38      80.331    3052.561     2.78
timer:  DHSCF1            1       1.194       1.194     0.00
timer:  DHSCF2            1      33.185      33.185     0.03
timer:  REORD           306       0.002       0.741     0.00
timer:  POISON           39       0.449      17.497     0.02
timer:  DHSCF3           38      78.695    2990.408     2.73
timer:  rhoofd           38      16.766     637.093     0.58
timer:  cellXC           38       2.495      94.816     0.09
timer:  vmat             38      37.482    1424.329     1.30
timer:  MolMec            2       0.000       0.000     0.00
timer:  diagon           37    2858.971  105781.937    96.48
timer:  c-eigval       8668       5.579   48356.253    44.10
timer:  c-buildHS      8668       0.036     310.883     0.28
timer:  cdiag         17215       5.675   97694.230    89.11
timer:  cdiag1        17215       0.259    4456.520     4.06
timer:  cdiag2        17215       1.837   31620.566    28.84
timer:  cdiag3        17215       3.371   58036.378    52.93
timer:  cdiag4        17215       0.086    1481.834     1.35
timer:  c-eigvec       8547       5.839   49909.190    45.52
timer:  c-buildD       8547       0.953    8146.793     7.43
timer:  DHSCF4            1      27.544      27.544     0.03
timer:  dfscf             1      25.454      25.454     0.02
timer:  overfsm           1       0.328       0.328     0.00
timer:  optical           1       6.353       6.353     0.01
  

elaps: ELAPSED times:
elaps:  Routine       Calls   Time/call    Tot.time        %
elaps:  siesta            1    9158.108    9158.108   100.00
elaps:  Setup             1       0.283       0.283     0.00
elaps:  bands             3      18.887      56.661     0.62
elaps:  writewave         1       0.002       0.002     0.00
elaps:  KSV_init          1       0.000       0.000     0.00
elaps:  IterMD            1    9100.628    9100.628    99.37
elaps:  hsparse           1       0.027       0.027     0.00
elaps:  overlap           1       0.715       0.715     0.01
elaps:  IterSCF          37     245.613    9087.691    99.23
elaps:  kinefsm           2       0.366       0.732     0.01
elaps:  nlefsm            2       1.742       3.485     0.04
elaps:  DHSCF            38       6.763     256.978     2.81
elaps:  DHSCF1            1       0.101       0.101     0.00
elaps:  DHSCF2            1       2.771       2.771     0.03
elaps:  REORD           306       0.000       0.089     0.00
elaps:  POISON           39       0.038       1.474     0.02
elaps:  DHSCF3           38       6.575     249.837     2.73
elaps:  rhoofd           38       2.761     104.913     1.15
elaps:  cellXC           38       0.208       7.907     0.09
elaps:  vmat             38       3.132     119.022     1.30
elaps:  MolMec            2       0.000       0.000     0.00
elaps:  diagon           37     238.815    8836.146    96.48
elaps:  c-eigval       8668       0.466    4039.109    44.10
elaps:  c-buildHS      8668       0.004      33.123     0.36
elaps:  cdiag         17215       0.469    8074.153    88.16
elaps:  cdiag1        17215       0.021     364.664     3.98
elaps:  cdiag2        17215       0.154    2643.601    28.87
elaps:  cdiag3        17215       0.282    4854.860    53.01
elaps:  cdiag4        17215       0.007     119.068     1.30
elaps:  c-eigvec       8547       0.479    4095.793    44.72
elaps:  c-buildD       8547       0.088     753.392     8.23
elaps:  DHSCF4            1       4.230       4.230     0.05
elaps:  dfscf             1       3.978       3.978     0.04
elaps:  overfsm           1       0.033       0.033     0.00
elaps:  optical           1       0.000       0.000     0.00
  
>> End of run:   6-MAY-2016   7:35:48
