Siesta Version:                                        siesta-3.2-pl-3
Architecture  : x86_64-unknown-linux-gnu--unknown
Compiler flags: mpiifort -g -O2 -fPIC -xSSE4.1 -fp-model source -shared-intel 
PARALLEL version

* Running on    8 nodes in parallel
>> Start of run:  30-APR-2016  19:40:43

                           ***********************       
                           *  WELCOME TO SIESTA  *       
                           ***********************       

reinit: Reading from standard input
************************** Dump of input data file ****************************
#(1) General system descriptors
SystemName            GRP_doping    # Descriptive name of the system
SystemLabel           GRP_doping    # Short name for naming files
%include STRUCT.fdf
%include KPT.fdf
%include BASIS.fdf
#%include TS.fdf # for transiesta calculation
#(4) DFT, Grid, SCF
XC.functional         GGA           # LDA or GGA (default = LDA)
XC.authors            PBE           # CA (Ceperley-Aldr) = PZ
                                    #    (Perdew-Zunger) - LDA - Default
                                    # PW92 (Perdew-Wang-92) - LDA
                                    # PBE (Perdew-Burke-Ernzerhof) - GGA
MeshCutoff            200.000000    Ry      # Default: 50.0 Ry ~ 0.444 Bohr
                                    #         100.0 Ry ~ 0.314 Bohr
MaxSCFIterations      500           # Default: 50
DM.MixingWeight       0.05          # Default: 0.25
DM.NumberPulay        10            # Default: 0
DM.PulayOnFile        F             # SystemLabel.P1, SystemLabel.P2
DM.Tolerance          1.d-4         # Default: 1.d-4
DM.UseSaveDM          .true.        # because of the bug
SCFMustConverge       .true.
NeglNonOverlapInt     F             # Default: F
#(5) Eigenvalue problem: order-N or diagonalization
SolutionMethod        Diagon        # or Transiesta
ElectronicTemperature 300.0 K       # Default: 300.0 K
#(6) Molecular dynamics and relaxations
#MD.TypeOfRun          CG            # Type of dynamics:
#MD.VariableCell       F
#MD.NumCGsteps         0           # 0 for single-point / 100 for gopt
#MD.MaxCGDispl         0.2 Bohr      # Default: 0.2 Bohr
#MD.MaxForceTol        0.02 eV/Ang   # Default: 0.04 eV/Ang
#MD.MaxStressTol       1.0 GPa       # Default: 1.0 GPa
# Geometry Constraints
#%block GeometryConstraints
#	position from 1 to 44
#%endblock GeometryConstraints
BandLinesScale   pi/a
%block BandLines
 1   0.00000000  0.00000000  0.00000000
50   0.00000000  0.07809418  0.00000000
50   0.04509075  0.07809242  0.00000000
20   0.00000000  0.00000000  0.00000000
%endblock BandLines
************************** End of input data file *****************************

reinit: -----------------------------------------------------------------------
reinit: System Name: GRP_doping
reinit: -----------------------------------------------------------------------
reinit: System Label: GRP_doping                                                  
reinit: -----------------------------------------------------------------------

initatom: Reading input for the pseudopotentials and atomic orbitals ----------
 Species number:            1  Label: B Atomic number:           5
 Species number:            2  Label: C Atomic number:           6
Ground state valence configuration:   2s02  2p01
Reading pseudopotential information in formatted form from B.psf

Valence configuration for pseudopotential generation:
2s( 2.00) rc: 1.74
2p( 1.00) rc: 1.74
3d( 0.00) rc: 1.74
4f( 0.00) rc: 1.74
Ground state valence configuration:   2s02  2p02
Reading pseudopotential information in formatted form from C.psf

Valence configuration for pseudopotential generation:
2s( 2.00) rc: 1.54
2p( 2.00) rc: 1.54
3d( 0.00) rc: 1.54
4f( 0.00) rc: 1.54
For B, standard SIESTA heuristics set lmxkb to 3
 (one more than the basis l, including polarization orbitals).
Use PS.lmax or PS.KBprojectors blocks to override.
For C, standard SIESTA heuristics set lmxkb to 3
 (one more than the basis l, including polarization orbitals).
Use PS.lmax or PS.KBprojectors blocks to override.

<basis_specs>
===============================================================================
B                    Z=   5    Mass=  10.810        Charge= 0.17977+309
Lmxo=1 Lmxkb= 3    BasisType=split      Semic=F
L=0  Nsemic=0  Cnfigmx=2
          n=1  nzeta=2  polorb=0
            splnorm:   0.15000    
               vcte:    0.0000    
               rinn:    0.0000    
                rcs:    0.0000      0.0000    
            lambdas:    1.0000      1.0000    
L=1  Nsemic=0  Cnfigmx=2
          n=1  nzeta=2  polorb=1
            splnorm:   0.15000    
               vcte:    0.0000    
               rinn:    0.0000    
                rcs:    0.0000      0.0000    
            lambdas:    1.0000      1.0000    
-------------------------------------------------------------------------------
L=0  Nkbl=1  erefs: 0.17977+309
L=1  Nkbl=1  erefs: 0.17977+309
L=2  Nkbl=1  erefs: 0.17977+309
L=3  Nkbl=1  erefs: 0.17977+309
===============================================================================
</basis_specs>

atom: Called for B                     (Z =   5)

read_vps: Pseudopotential generation method:
read_vps: ATM3      Troullier-Martins                       
Total valence charge:    3.00000

read_vps: Pseudopotential includes a core correction:
read_vps: Pseudo-core for xc-correction

xc_check: Exchange-correlation functional:
xc_check: GGA Perdew, Burke & Ernzerhof 1996
V l=0 = -2*Zval/r beyond r=  1.7165
V l=1 = -2*Zval/r beyond r=  1.7165
V l=2 = -2*Zval/r beyond r=  1.7165
V l=3 = -2*Zval/r beyond r=  1.6951
All V_l potentials equal beyond r=  1.7165
This should be close to max(r_c) in ps generation
All pots = -2*Zval/r beyond r=  1.7165

VLOCAL1: 99.0% of the norm of Vloc inside     14.733 Ry
VLOCAL1: 99.9% of the norm of Vloc inside     33.577 Ry
atom: Maximum radius for 4*pi*r*r*local-pseudopot. charge    2.04484
atom: Maximum radius for r*vlocal+2*Zval:    1.75994
GHOST: No ghost state for L =  0
GHOST: No ghost state for L =  1
GHOST: No ghost state for L =  2
GHOST: No ghost state for L =  3

KBgen: Kleinman-Bylander projectors: 
   l= 0   rc=  1.897051   el= -0.693730   Ekb=  4.595746   kbcos=  0.286105
   l= 1   rc=  1.920920   el= -0.265236   Ekb= -2.350715   kbcos= -0.315747
   l= 2   rc=  2.044840   el=  0.002055   Ekb= -0.690767   kbcos= -0.013822
   l= 3   rc=  2.149707   el=  0.003188   Ekb= -0.315358   kbcos= -0.002055

KBgen: Total number of  Kleinman-Bylander projectors:   16
atom: -------------------------------------------------------------------------

atom: SANKEY-TYPE ORBITALS:
atom: Selected multiple-zeta basis: split     

SPLIT: Orbitals with angular momentum L= 0

SPLIT: Basis orbitals for state 2s

SPLIT: PAO cut-off radius determined from an
SPLIT: energy shift=  0.007350 Ry

   izeta = 1
                 lambda =    1.000000
                     rc =    5.422032
                 energy =   -0.686029
                kinetic =    0.576707
    potential(screened) =   -1.262736
       potential(ionic) =   -3.271094

   izeta = 2
                 rmatch =    4.222573
              splitnorm =    0.150000
                 energy =   -0.602132
                kinetic =    0.858975
    potential(screened) =   -1.461107
       potential(ionic) =   -3.582536

SPLIT: Orbitals with angular momentum L= 1

SPLIT: Basis orbitals for state 2p

SPLIT: PAO cut-off radius determined from an
SPLIT: energy shift=  0.007350 Ry

   izeta = 1
                 lambda =    1.000000
                     rc =    6.790259
                 energy =   -0.258578
                kinetic =    1.481412
    potential(screened) =   -1.739989
       potential(ionic) =   -3.657461

   izeta = 2
                 rmatch =    4.608740
              splitnorm =    0.150000
                 energy =   -0.173757
                kinetic =    2.186690
    potential(screened) =   -2.360447
       potential(ionic) =   -4.464260

POLgen: Perturbative polarization orbital with L=  2

POLgen: Polarization orbital for state 2p

   izeta = 1
                     rc =    6.790259
                 energy =    0.684082
                kinetic =    1.471481
    potential(screened) =   -0.787399
       potential(ionic) =   -2.406985
atom: Total number of Sankey-type orbitals: 13

atm_pop: Valence configuration (for local Pseudopot. screening):
 2s( 2.00)                                                            
 2p( 1.00)                                                            
Vna: chval, zval:    3.00000   3.00000

Vna:  Cut-off radius for the neutral-atom potential:   6.790259
comcore: Pseudo-core radius Rcore=  2.122997

atom: _________________________________________________________________________

<basis_specs>
===============================================================================
C                    Z=   6    Mass=  12.010        Charge= 0.17977+309
Lmxo=1 Lmxkb= 3    BasisType=split      Semic=F
L=0  Nsemic=0  Cnfigmx=2
          n=1  nzeta=2  polorb=0
            splnorm:   0.15000    
               vcte:    0.0000    
               rinn:    0.0000    
                rcs:    0.0000      0.0000    
            lambdas:    1.0000      1.0000    
L=1  Nsemic=0  Cnfigmx=2
          n=1  nzeta=2  polorb=1
            splnorm:   0.15000    
               vcte:    0.0000    
               rinn:    0.0000    
                rcs:    0.0000      0.0000    
            lambdas:    1.0000      1.0000    
-------------------------------------------------------------------------------
L=0  Nkbl=1  erefs: 0.17977+309
L=1  Nkbl=1  erefs: 0.17977+309
L=2  Nkbl=1  erefs: 0.17977+309
L=3  Nkbl=1  erefs: 0.17977+309
===============================================================================
</basis_specs>

atom: Called for C                     (Z =   6)

read_vps: Pseudopotential generation method:
read_vps: ATM3      Troullier-Martins                       
Total valence charge:    4.00000

read_vps: Pseudopotential includes a core correction:
read_vps: Pseudo-core for xc-correction

xc_check: Exchange-correlation functional:
xc_check: GGA Perdew, Burke & Ernzerhof 1996
V l=0 = -2*Zval/r beyond r=  1.5227
V l=1 = -2*Zval/r beyond r=  1.5227
V l=2 = -2*Zval/r beyond r=  1.5227
V l=3 = -2*Zval/r beyond r=  1.5038
All V_l potentials equal beyond r=  1.5227
This should be close to max(r_c) in ps generation
All pots = -2*Zval/r beyond r=  1.5227

VLOCAL1: 99.0% of the norm of Vloc inside     18.722 Ry
VLOCAL1: 99.9% of the norm of Vloc inside     42.668 Ry
atom: Maximum radius for 4*pi*r*r*local-pseudopot. charge    1.83678
atom: Maximum radius for r*vlocal+2*Zval:    1.58088
GHOST: No ghost state for L =  0
GHOST: No ghost state for L =  1
GHOST: No ghost state for L =  2
GHOST: No ghost state for L =  3

KBgen: Kleinman-Bylander projectors: 
   l= 0   rc=  1.704034   el= -1.009801   Ekb=  5.335044   kbcos=  0.316824
   l= 1   rc=  1.704034   el= -0.388707   Ekb= -3.785862   kbcos= -0.366464
   l= 2   rc=  1.791422   el=  0.001971   Ekb= -0.970471   kbcos= -0.009212
   l= 3   rc=  1.859892   el=  0.003065   Ekb= -0.399525   kbcos= -0.001223

KBgen: Total number of  Kleinman-Bylander projectors:   16
atom: -------------------------------------------------------------------------

atom: SANKEY-TYPE ORBITALS:
atom: Selected multiple-zeta basis: split     

SPLIT: Orbitals with angular momentum L= 0

SPLIT: Basis orbitals for state 2s

SPLIT: PAO cut-off radius determined from an
SPLIT: energy shift=  0.007350 Ry

   izeta = 1
                 lambda =    1.000000
                     rc =    4.632753
                 energy =   -1.002270
                kinetic =    0.855760
    potential(screened) =   -1.858031
       potential(ionic) =   -5.417575

   izeta = 2
                 rmatch =    3.431921
              splitnorm =    0.150000
                 energy =   -0.867111
                kinetic =    1.300804
    potential(screened) =   -2.167915
       potential(ionic) =   -5.962684

SPLIT: Orbitals with angular momentum L= 1

SPLIT: Basis orbitals for state 2p

SPLIT: PAO cut-off radius determined from an
SPLIT: energy shift=  0.007350 Ry

   izeta = 1
                 lambda =    1.000000
                     rc =    5.658549
                 energy =   -0.381140
                kinetic =    2.399701
    potential(screened) =   -2.780841
       potential(ionic) =   -6.206085

   izeta = 2
                 rmatch =    3.653288
              splitnorm =    0.150000
                 energy =   -0.249149
                kinetic =    3.542762
    potential(screened) =   -3.791911
       potential(ionic) =   -7.581078

POLgen: Perturbative polarization orbital with L=  2

POLgen: Polarization orbital for state 2p

   izeta = 1
                     rc =    5.658549
                 energy =    1.109913
                kinetic =    2.304789
    potential(screened) =   -1.194876
       potential(ionic) =   -4.013592
atom: Total number of Sankey-type orbitals: 13

atm_pop: Valence configuration (for local Pseudopot. screening):
 2s( 2.00)                                                            
 2p( 2.00)                                                            
Vna: chval, zval:    4.00000   4.00000

Vna:  Cut-off radius for the neutral-atom potential:   5.658549
comcore: Pseudo-core radius Rcore=  1.791422

atom: _________________________________________________________________________

prinput: Basis input ----------------------------------------------------------

PAO.BasisType split     

%block ChemicalSpeciesLabel
    1    5 B                       # Species index, atomic number, species label
    2    6 C                       # Species index, atomic number, species label
%endblock ChemicalSpeciesLabel

%block PAO.Basis                 # Define Basis set
B                     2                    # Species label, number of l-shells
 n=2   0   2                         # n, l, Nzeta 
   5.422      4.223   
   1.000      1.000   
 n=2   1   2 P   1                   # n, l, Nzeta, Polarization, NzetaPol
   6.790      4.609   
   1.000      1.000   
C                     2                    # Species label, number of l-shells
 n=2   0   2                         # n, l, Nzeta 
   4.633      3.432   
   1.000      1.000   
 n=2   1   2 P   1                   # n, l, Nzeta, Polarization, NzetaPol
   5.659      3.653   
   1.000      1.000   
%endblock PAO.Basis

prinput: ----------------------------------------------------------------------

coor:   Atomic-coordinates input format  =     Fractional

siesta: Atomic coordinates (Bohr) and species
siesta:     -2.35420  38.89134   0.00000  1        1
siesta:      2.30256  38.89134   0.00000  1        2
siesta:      9.28770  29.48119   0.00000  1        3
siesta:      2.30256   6.62836   0.00000  1        4
siesta:      4.63094  13.34970   0.00000  1        5
siesta:     -2.35420   6.62836   0.00000  1        6
siesta:     -0.02582  13.34970   0.00000  1        7
siesta:     -4.68258  13.34970   0.00000  1        8
siesta:     -0.02582  21.41544   0.00000  1        9
siesta:     -4.68258  18.72698   0.00000  1       10
siesta:     -4.68258  21.41544   0.00000  1       11
siesta:     -2.35420  22.75985   0.00000  1       12
siesta:     -2.35420  25.44831   0.00000  1       13
siesta:     -9.33934  29.48119   0.00000  1       14
siesta:      4.63094  29.48119   0.00000  1       15
siesta:     -0.02582  29.48119   0.00000  1       16
siesta:     -4.68258  29.48119   0.00000  1       17
siesta:     -0.02582   2.59549   0.00000  2       18
siesta:     -0.02582   5.28395   0.00000  2       19
siesta:     -2.35420  41.57980   0.00000  2       20
siesta:      2.30256  41.57980   0.00000  2       21
siesta:      4.63094  34.85847   0.00000  2       22
siesta:      4.63094  37.54693   0.00000  2       23
siesta:      6.95932  30.82560   0.00000  2       24
siesta:      6.95932  33.51406   0.00000  2       25
siesta:      9.28770  26.79272   0.00000  2       26
siesta:     -4.68258  34.85847   0.00000  2       27
siesta:     -4.68258  37.54693   0.00000  2       28
siesta:      2.30256   9.31683   0.00000  2       29
siesta:      4.63094  10.66124   0.00000  2       30
siesta:      6.95932  14.69411   0.00000  2       31
siesta:      6.95932  17.38257   0.00000  2       32
siesta:      9.28770  18.72698   0.00000  2       33
siesta:      9.28770  21.41544   0.00000  2       34
siesta:     11.61608  22.75985   0.00000  2       35
siesta:     11.61608  25.44831   0.00000  2       36
siesta:     -2.35420   9.31683   0.00000  2       37
siesta:     -0.02582  10.66124   0.00000  2       38
siesta:      2.30256  14.69411   0.00000  2       39
siesta:      2.30256  17.38257   0.00000  2       40
siesta:      4.63094  18.72698   0.00000  2       41
siesta:      4.63094  21.41544   0.00000  2       42
siesta:      6.95932  22.75985   0.00000  2       43
siesta:      6.95932  25.44831   0.00000  2       44
siesta:     -4.68258  10.66124   0.00000  2       45
siesta:     -2.35420  14.69411   0.00000  2       46
siesta:     -2.35420  17.38257   0.00000  2       47
siesta:     -0.02582  18.72698   0.00000  2       48
siesta:      2.30256  22.75985   0.00000  2       49
siesta:      2.30256  25.44831   0.00000  2       50
siesta:     -7.01096  14.69411   0.00000  2       51
siesta:     -7.01096  17.38257   0.00000  2       52
siesta:     -9.33934  18.72698   0.00000  2       53
siesta:     -9.33934  21.41544   0.00000  2       54
siesta:     -7.01096  22.75985   0.00000  2       55
siesta:     -7.01096  25.44831   0.00000  2       56
siesta:    -11.66772  22.75985   0.00000  2       57
siesta:    -11.66772  25.44831   0.00000  2       58
siesta:     -9.33934  26.79272   0.00000  2       59
siesta:      4.63094  26.79272   0.00000  2       60
siesta:     -0.02582  26.79272   0.00000  2       61
siesta:     -4.68258  26.79272   0.00000  2       62
siesta:      2.30256  30.82560   0.00000  2       63
siesta:      2.30256  33.51406   0.00000  2       64
siesta:     -2.35420  30.82560   0.00000  2       65
siesta:     -2.35420  33.51406   0.00000  2       66
siesta:     -7.01096  30.82560   0.00000  2       67
siesta:     -7.01096  33.51406   0.00000  2       68
siesta:     -0.02582  34.85847   0.00000  2       69
siesta:     -0.02582  37.54693   0.00000  2       70
siesta:     -0.02582  42.92421   0.00000  2       71
siesta:     -0.02582  45.61267   0.00000  2       72

siesta: System type = slab      

initatomlists: Number of atoms, orbitals, and projectors:     72   936  1152

siesta: ******************** Simulation parameters ****************************
siesta:
siesta: The following are some of the parameters of the simulation.
siesta: A complete list of the parameters used, including default values,
siesta: can be found in file out.fdf
siesta:
redata: Non-Collinear-spin run           =     F
redata: SpinPolarized (Up/Down) run      =     F
redata: Number of spin components        =     1
redata: Long output                      =     F
redata: Number of Atomic Species         =        2
redata: Charge density info will appear in .RHO file
redata: Write Mulliken Pop.              =     NO
redata: Mesh Cutoff                      =   200.0000  Ry
redata: Net charge of the system         =     0.0000 |e|
redata: Max. number of SCF Iter          =      500
redata: SCF convergence failure will abort job
redata: Performing Pulay mixing using    =    10 iterations
redata: Mix DM in first SCF step ?       =     F
redata: Write Pulay info on disk?        =     F
redata: Discard 1st Pulay DM after  kick =     F
redata: New DM Mixing Weight             =     0.0500
redata: New DM Occupancy tolerance       = 0.000000000001
redata: No kicks to SCF
redata: DM Mixing Weight for Kicks       =     0.5000
redata: DM Tolerance for SCF             =     0.000100
redata: Require Energy convergence for SCF =     F
redata: DM Energy tolerance for SCF      =     0.000100 eV
redata: Require Harris convergence for SCF =     F
redata: DM Harris energy tolerance for SCF =     0.000100 eV
redata: Using Saved Data (generic)   =     F
redata: Use continuation files for DM    =     T
redata: Neglect nonoverlap interactions  =     F
redata: Method of Calculation            =     Diagonalization
redata: Divide and Conquer               =     T
redata: Electronic Temperature           =     0.0019  Ry
redata: Fix the spin of the system       =     F
redata: Dynamics option                  =     Verlet MD run
redata: Initial MD time step             =        1
redata:   Final MD time step             =        1
redata: Length of MD time step           =     1.0000  fs
redata: Initial Temperature of MD run    =     0.0000  K
redata: Perform a MD quench              =     F
redata: ***********************************************************************
Total number of electrons:   271.000000
Total ionic charge:   271.000000

* ProcessorY, Blocksize:    2  24

k-point displ. along   1 input, could be:     0.50    0.00
k-point displ. along   2 input, could be:     0.50    0.00
 Kpoints in:          231 . Kpoints trimmed:          231

siesta: k-grid: Number of k-points =   231
siesta: k-grid: Cutoff (effective) =     5.000 Ang
siesta: k-grid: Supercell and displacements
siesta: k-grid:   21   0   0      0.500
siesta: k-grid:    0  21   0      0.500
siesta: k-grid:    0   0   1      0.000
Naive supercell factors:     2    2    2

superc: Internal auxiliary supercell:     2 x     2 x     2  =       8
superc: Number of atoms, orbitals, and projectors:    576   7488   9216

* Maximum dynamic memory allocated =     4 MB

siesta:                 ==============================
                            Begin MD step =      1
                        ==============================

superc: Internal auxiliary supercell:     2 x     2 x     2  =       8
superc: Number of atoms, orbitals, and projectors:    576   7488   9216

outcell: Unit cell vectors (Ang):
       12.804619    7.392750    0.000000
        0.000000   14.785500    0.000000
        0.000000    0.000000   10.000000

outcell: Cell vector modules (Ang)   :   14.785500   14.785500   10.000000
outcell: Cell angles (23,13,12) (deg):     90.0000     90.0000     60.0000
outcell: Cell volume (Ang**3)        :   1893.2269
New_DM. Step:     1
Initializing Density Matrix...

InitMesh: MESH =   120 x   120 x    90 =     1296000
InitMesh: Mesh cutoff (required, used) =   200.000   223.865 Ry

* Maximum dynamic memory allocated =   223 MB

stepf: Fermi-Dirac step function

siesta: Program's energy decomposition (eV):
siesta: Ebs     =     -5613.786610
siesta: Eions   =     16226.046981
siesta: Ena     =      4321.072577
siesta: Ekin    =      5481.631332
siesta: Enl     =       786.161316
siesta: DEna    =        -0.000009
siesta: DUscf   =         0.000000
siesta: DUext   =         0.000000
siesta: Exc     =     -4190.488319
siesta: eta*DQ  =         0.000000
siesta: Emadel  =         0.000000
siesta: Emeta   =         0.000000
siesta: Emolmec =         0.000000
siesta: Ekinion =         0.000000
siesta: Eharris =     -9613.867066
siesta: Etot    =     -9827.670084
siesta: FreeEng =     -9827.670084

siesta: iscf   Eharris(eV)      E_KS(eV)   FreeEng(eV)   dDmax  Ef(eV)
siesta:    1    -9613.8671    -9827.6701    -9827.6701  6.9398 -8.2953
timer: Routine,Calls,Time,% = IterSCF        1    4616.813  99.74
elaps: Routine,Calls,Wall,% = IterSCF        1     577.886  99.74
siesta:    2   -14663.0389    -8822.2352    -8822.2951 19.1719 -4.0136
siesta:    3    -9594.5498    -9660.6971    -9660.7358  2.5484 -6.2583
siesta:    4    -9557.1421    -9557.4928    -9557.5283  1.3932 -5.1184
siesta:    5    -9475.1434    -9471.2180    -9471.2844  0.9431 -5.3394
siesta:    6    -9469.7757    -9451.1996    -9451.2507  0.8988 -4.9573
siesta:    7    -9463.2324    -9444.3546    -9444.4142  0.8113 -5.4779
siesta:    8    -9456.3985    -9431.5605    -9431.6077  0.5998 -5.2533
siesta:    9    -9454.0007    -9426.9135    -9426.9609  0.5935 -5.2350
siesta:   10    -9455.1135    -9423.6779    -9423.7272  0.4728 -5.0678
siesta:   11    -9454.3868    -9423.0367    -9423.0656  0.3760 -5.0359
siesta:   12    -9453.0664    -9424.4458    -9424.4731  0.2443 -5.1901
siesta:   13    -9452.7939    -9426.4950    -9426.5493  0.2443 -5.2366
siesta:   14    -9452.3662    -9427.5304    -9427.5882  0.2233 -5.2658
siesta:   15    -9451.7266    -9429.4874    -9429.5527  0.1984 -5.2881
siesta:   16    -9451.3425    -9436.8625    -9436.9191  0.1882 -5.3546
siesta:   17    -9451.0739    -9437.5807    -9437.6538  0.1557 -5.2886
siesta:   18    -9450.9996    -9443.6370    -9443.6995  0.1158 -5.2960
siesta:   19    -9450.9684    -9449.3379    -9449.4000  0.0781 -5.3219
siesta:   20    -9450.9556    -9451.2257    -9451.2897  0.0671 -5.3299
siesta:   21    -9450.9380    -9451.3380    -9451.4011  0.0598 -5.3319
siesta:   22    -9450.9214    -9452.9376    -9453.0028  0.0348 -5.3276
siesta:   23    -9450.9164    -9452.7253    -9452.7904  0.0529 -5.3181
siesta:   24    -9450.9182    -9452.8231    -9452.8894  0.0380 -5.3160
siesta:   25    -9450.9132    -9452.8676    -9452.9325  0.0223 -5.3132
siesta:   26    -9450.9126    -9452.4580    -9452.5252  0.0197 -5.3069
siesta:   27    -9450.9075    -9452.2458    -9452.3108  0.0103 -5.3052
siesta:   28    -9450.9075    -9451.8264    -9451.8940  0.0049 -5.3012
siesta:   29    -9450.9078    -9451.5674    -9451.6338  0.0050 -5.2999
siesta:   30    -9450.9074    -9451.4144    -9451.4805  0.0027 -5.3013
siesta:   31    -9450.9072    -9451.2818    -9451.3480  0.0021 -5.3023
siesta:   32    -9450.9073    -9451.0987    -9451.1651  0.0014 -5.3027
siesta:   33    -9450.9072    -9450.9875    -9451.0538  0.0009 -5.3028
siesta:   34    -9450.9072    -9450.9509    -9451.0173  0.0006 -5.3028
siesta:   35    -9450.9072    -9450.9353    -9451.0017  0.0005 -5.3028
siesta:   36    -9450.9072    -9450.9345    -9451.0008  0.0004 -5.3029
siesta:   37    -9450.9072    -9450.9213    -9450.9876  0.0003 -5.3030
siesta:   38    -9450.9072    -9450.9183    -9450.9847  0.0003 -5.3030
siesta:   39    -9450.9072    -9450.9110    -9450.9773  0.0003 -5.3030
siesta:   40    -9450.9072    -9450.9086    -9450.9750  0.0003 -5.3030
siesta:   41    -9450.9072    -9450.9072    -9450.9736  0.0002 -5.3030
siesta:   42    -9450.9072    -9450.9108    -9450.9772  0.0002 -5.3031
siesta:   43    -9450.9072    -9450.9159    -9450.9823  0.0001 -5.3031

siesta: E_KS(eV) =            -9450.9156

siesta: E_KS - E_eggbox =     -9450.9156

siesta: Atomic forces (eV/Ang):
----------------------------------------
   Tot   -0.164117   -0.021871    0.000000
----------------------------------------
   Max  560.509326
   Res  148.334626    sqrt( Sum f_i^2 / 3N )
----------------------------------------
   Max  560.509326    constrained

Stress-tensor-Voigt (kbar):     -764.19    -2651.30       -0.49        1.17        0.00        0.00
(Free)E + p*V (eV/cell)    -8105.4892
Target enthalpy (eV/cell)    -9450.9820

siesta: Stress tensor (static) (eV/Ang**3):
        -0.476966    0.000728    0.000000
         0.000728   -1.654793    0.000000
         0.000000    0.000000   -0.000304

siesta: Pressure (static):       1138.65933607  kBar

siesta: Stress tensor (total) (eV/Ang**3):
        -0.476966    0.000728    0.000000
         0.000728   -1.654793    0.000000
         0.000000    0.000000   -0.000304

siesta: Pressure (total):       1138.65933607  kBar

siesta: Temp_ion =       0.000 K

* Maximum dynamic memory allocated =   240 MB
Computing bands...

siesta: Program's energy decomposition (eV):
siesta: Ebs     =     -4192.511544
siesta: Eions   =     16226.046981
siesta: Ena     =      4321.072577
siesta: Ekin    =      8350.281444
siesta: Enl     =      -845.467073
siesta: DEna    =      -795.363580
siesta: DUscf   =       108.626326
siesta: DUext   =         0.000000
siesta: Exc     =     -4364.018358
siesta: eta*DQ  =         0.000000
siesta: Emadel  =         0.000000
siesta: Emeta   =         0.000000
siesta: Emolmec =         0.000000
siesta: Ekinion =         0.000000
siesta: Eharris =     -9450.907207
siesta: Etot    =     -9450.915644
siesta: FreeEng =     -9450.981994

siesta: Final energy (eV):
siesta:  Band Struct. =   -4192.511544
siesta:       Kinetic =    8350.281444
siesta:       Hartree =   26810.737073
siesta:    Ext. field =       0.000000
siesta:   Exch.-corr. =   -4364.018358
siesta:  Ion-electron =  -61646.245049
siesta:       Ion-ion =   21398.329247
siesta:       Ekinion =       0.000000
siesta:         Total =   -9450.915644

siesta: Atomic forces (eV/Ang):
siesta:      1   -0.638549  114.105894    0.000000
siesta:      2    0.497057  114.532162    0.000000
siesta:      3    0.034004    1.274920    0.000000
siesta:      4    9.164560  402.503954    0.000000
siesta:      5   20.513797   -1.288576    0.000000
siesta:      6   -9.315555  402.455986    0.000000
siesta:      7    0.121305 -117.280350    0.000000
siesta:      8  -19.910931   -1.838265    0.000000
siesta:      9    3.076908   -0.865653    0.000000
siesta:     10    3.234873   -3.977170    0.000000
siesta:     11   -4.527544    3.667123    0.000000
siesta:     12    1.012107   -3.321189    0.000000
siesta:     13   -0.563352    5.194459    0.000000
siesta:     14   -0.246152    1.168952    0.000000
siesta:     15   -1.001393    0.040285    0.000000
siesta:     16    0.685760 -418.172241    0.000000
siesta:     17    1.291965   -0.183126    0.000000
siesta:     18   -0.667080  411.671832    0.000000
siesta:     19   -0.135310 -108.903719    0.000000
siesta:     20  -15.837369 -545.442136    0.000000
siesta:     21   14.477380 -544.128248    0.000000
siesta:     22   25.795665    0.781867    0.000000
siesta:     23   28.394849 -548.566306    0.000000
siesta:     24    3.880105    5.476218    0.000000
siesta:     25   -2.316574    1.572330    0.000000
siesta:     26    3.362117   -1.764304    0.000000
siesta:     27  -25.453247    1.088167    0.000000
siesta:     28  -28.455063 -549.035059    0.000000
siesta:     29    3.213459 -125.093907    0.000000
siesta:     30   32.202915  547.194483    0.000000
siesta:     31   -0.860274   -0.608128    0.000000
siesta:     32    2.544253   -0.280762    0.000000
siesta:     33   -0.218897   -0.437520    0.000000
siesta:     34    1.779161   -1.801679    0.000000
siesta:     35   -0.098313    6.073372    0.000000
siesta:     36   -0.200698   -6.024136    0.000000
siesta:     37   -3.219951 -125.176598    0.000000
siesta:     38    0.342755  548.872275    0.000000
siesta:     39   28.405715  550.467575    0.000000
siesta:     40   21.148535   -5.609184    0.000000
siesta:     41   -0.806932    1.333154    0.000000
siesta:     42   -0.035193    0.620703    0.000000
siesta:     43    0.300196    0.914873    0.000000
siesta:     44   -0.652934   -1.216690    0.000000
siesta:     45  -32.742384  548.052319    0.000000
siesta:     46  -26.113888  551.873467    0.000000
siesta:     47  -19.091975   -6.594741    0.000000
siesta:     48    0.037409  560.509326    0.000000
siesta:     49    2.882935    0.338393    0.000000
siesta:     50    0.763219    0.587727    0.000000
siesta:     51    1.083565    0.418526    0.000000
siesta:     52   -8.183508   -2.355866    0.000000
siesta:     53    0.700501   -0.595854    0.000000
siesta:     54   -2.128695   -1.274272    0.000000
siesta:     55   -2.604269    2.506542    0.000000
siesta:     56    0.106381   -0.848503    0.000000
siesta:     57   -0.082207    5.696749    0.000000
siesta:     58    0.070772   -5.668342    0.000000
siesta:     59   -3.711537   -1.653405    0.000000
siesta:     60   -0.253239   -3.901072    0.000000
siesta:     61    2.864026   -0.514267    0.000000
siesta:     62   -2.842777   -2.197939    0.000000
siesta:     63   18.383781    0.496592    0.000000
siesta:     64   34.178489 -407.167969    0.000000
siesta:     65  -18.190095    0.816841    0.000000
siesta:     66  -34.244413 -407.516715    0.000000
siesta:     67   -3.967357    5.674914    0.000000
siesta:     68    2.037666    1.236785    0.000000
siesta:     69    0.225167  122.207827    0.000000
siesta:     70    0.313528 -546.740099    0.000000
siesta:     71   -0.967222  130.893441    0.000000
siesta:     72    0.993880 -554.297912    0.000000
siesta: ----------------------------------------
siesta:    Tot   -0.164117   -0.021871    0.000000

siesta: Stress tensor (static) (eV/Ang**3):
siesta:    -0.476966    0.000728    0.000000
siesta:     0.000728   -1.654793    0.000000
siesta:     0.000000    0.000000   -0.000304

siesta: Cell volume =       1893.226884 Ang**3

siesta: Pressure (static):
siesta:                Solid            Molecule  Units
siesta:           0.00774030          0.11447586  Ry/Bohr**3
siesta:           0.71068758         10.51078391  eV/Ang**3
siesta:        1138.65933607      16840.31440423  kBar
(Free)E+ p_basis*V_orbitals  =       -9414.873169
(Free)Eharris+ p_basis*V_orbitals  =       -9414.864477

siesta: Electric dipole (a.u.)  =    0.000000    0.000000    0.000000
siesta: Electric dipole (Debye) =    0.000000    0.000000    0.000000

* Maximum dynamic memory allocated : Node    0 =   240 MB
* Maximum dynamic memory allocated : Node    1 =    83 MB
* Maximum dynamic memory allocated : Node    2 =    86 MB
* Maximum dynamic memory allocated : Node    3 =   226 MB
* Maximum dynamic memory allocated : Node    4 =   222 MB
* Maximum dynamic memory allocated : Node    5 =    81 MB
* Maximum dynamic memory allocated : Node    6 =    84 MB
* Maximum dynamic memory allocated : Node    7 =   204 MB

* Maximum memory occured during matrixMtoO                    

timer: CPU execution times:
timer:  Routine       Calls   Time/call    Tot.time        %
timer:  siesta            1  195147.234  195147.234   100.00
timer:  Setup             1       3.034       3.034     0.00
timer:  bands             3     271.938     815.814     0.42
timer:  writewave         1       0.016       0.016     0.00
timer:  KSV_init          1       0.001       0.001     0.00
timer:  IterMD            1  194322.547  194322.547    99.58
timer:  hsparse           1       0.392       0.392     0.00
timer:  overlap           1       7.790       7.790     0.00
timer:  IterSCF          43    4513.868  194096.336    99.46
timer:  kinefsm           2       4.058       8.116     0.00
timer:  nlefsm            2      21.235      42.470     0.02
timer:  DHSCF            44     120.009    5280.398     2.71
timer:  DHSCF1            1       1.002       1.002     0.00
timer:  DHSCF2            1      44.963      44.963     0.02
timer:  REORD           354       0.010       3.667     0.00
timer:  POISON           45       2.420     108.884     0.06
timer:  DHSCF3           44     117.957    5190.104     2.66
timer:  rhoofd           44      24.804    1091.373     0.56
timer:  cellXC           44       3.530     155.308     0.08
timer:  vmat             44      57.510    2530.459     1.30
timer:  MolMec            2       0.000       0.001     0.00
timer:  diagon           43    4392.574  188880.699    96.79
timer:  c-eigval      10054       6.768   68048.884    34.87
timer:  c-buildHS     10054       0.143    1433.281     0.73
timer:  cdiag         19987       6.979  139483.316    71.48
timer:  cdiag1        19987       0.436    8719.579     4.47
timer:  cdiag2        19987       1.920   38374.279    19.66
timer:  cdiag3        19987       3.984   79633.865    40.81
timer:  cdiag4        19987       0.230    4596.566     2.36
timer:  c-eigvec       9933       7.404   73543.718    37.69
timer:  c-buildD       9933       4.837   48048.577    24.62
timer:  DHSCF4            1      42.000      42.000     0.02
timer:  dfscf             1      39.338      39.338     0.02
timer:  overfsm           1       0.477       0.477     0.00
timer:  optical           1       5.098       5.098     0.00
  

elaps: ELAPSED times:
elaps:  Routine       Calls   Time/call    Tot.time        %
elaps:  siesta            1   24423.290   24423.290   100.00
elaps:  Setup             1       0.378       0.378     0.00
elaps:  bands             3      34.044     102.132     0.42
elaps:  writewave         1       0.002       0.002     0.00
elaps:  KSV_init          1       0.000       0.000     0.00
elaps:  IterMD            1   24320.106   24320.106    99.58
elaps:  hsparse           1       0.050       0.050     0.00
elaps:  overlap           1       0.989       0.989     0.00
elaps:  IterSCF          43     564.926   24291.805    99.46
elaps:  kinefsm           2       0.545       1.090     0.00
elaps:  nlefsm            2       2.806       5.612     0.02
elaps:  DHSCF            44      15.137     666.041     2.73
elaps:  DHSCF1            1       0.127       0.127     0.00
elaps:  DHSCF2            1       5.625       5.625     0.02
elaps:  REORD           354       0.001       0.478     0.00
elaps:  POISON           45       0.303      13.642     0.06
elaps:  DHSCF3           44      14.757     649.327     2.66
elaps:  rhoofd           44       6.704     294.964     1.21
elaps:  cellXC           44       0.441      19.390     0.08
elaps:  vmat             44       7.195     316.582     1.30
elaps:  MolMec            2       0.000       0.000     0.00
elaps:  diagon           43     549.779   23640.515    96.79
elaps:  c-eigval      10054       0.847    8514.314    34.86
elaps:  c-buildHS     10054       0.019     194.988     0.80
elaps:  cdiag         19987       0.857   17123.295    70.11
elaps:  cdiag1        19987       0.054    1070.786     4.38
elaps:  cdiag2        19987       0.240    4802.120    19.66
elaps:  cdiag3        19987       0.499    9977.064    40.85
elaps:  cdiag4        19987       0.029     586.536     2.40
elaps:  c-eigvec       9933       0.898    8916.182    36.51
elaps:  c-buildD       9933       0.635    6304.040    25.81
elaps:  DHSCF4            1      10.631      10.631     0.04
elaps:  dfscf             1      10.105      10.105     0.04
elaps:  overfsm           1       0.065       0.065     0.00
elaps:  optical           1       0.000       0.000     0.00
  
>> End of run:   1-MAY-2016   2:27:46
