Siesta Version:                                        siesta-3.2-pl-3
Architecture  : x86_64-unknown-linux-gnu--unknown
Compiler flags: mpiifort -g -O2 -fPIC -xSSE4.1 -fp-model source -shared-intel 
PARALLEL version

* Running on   12 nodes in parallel
>> Start of run:   3-MAY-2016   2:26:04

                           ***********************       
                           *  WELCOME TO SIESTA  *       
                           ***********************       

reinit: Reading from standard input
************************** Dump of input data file ****************************
#(1) General system descriptors
SystemName            GRP_doping    # Descriptive name of the system
SystemLabel           GRP_doping    # Short name for naming files
%include STRUCT.fdf
%include KPT.fdf
%include BASIS.fdf
#%include TS.fdf # for transiesta calculation
#(4) DFT, Grid, SCF
XC.functional         GGA           # LDA or GGA (default = LDA)
XC.authors            PBE           # CA (Ceperley-Aldr) = PZ
                                    #    (Perdew-Zunger) - LDA - Default
                                    # PW92 (Perdew-Wang-92) - LDA
                                    # PBE (Perdew-Burke-Ernzerhof) - GGA
MeshCutoff            200.000000    Ry      # Default: 50.0 Ry ~ 0.444 Bohr
                                    #         100.0 Ry ~ 0.314 Bohr
MaxSCFIterations      500           # Default: 50
DM.MixingWeight       0.05          # Default: 0.25
DM.NumberPulay        10            # Default: 0
DM.PulayOnFile        F             # SystemLabel.P1, SystemLabel.P2
DM.Tolerance          1.d-4         # Default: 1.d-4
DM.UseSaveDM          .true.        # because of the bug
SCFMustConverge       .true.
NeglNonOverlapInt     F             # Default: F
#(5) Eigenvalue problem: order-N or diagonalization
SolutionMethod        Diagon        # or Transiesta
ElectronicTemperature 300.0 K       # Default: 300.0 K
#(6) Molecular dynamics and relaxations
#MD.TypeOfRun          CG            # Type of dynamics:
#MD.VariableCell       F
#MD.NumCGsteps         0           # 0 for single-point / 100 for gopt
#MD.MaxCGDispl         0.2 Bohr      # Default: 0.2 Bohr
#MD.MaxForceTol        0.02 eV/Ang   # Default: 0.04 eV/Ang
#MD.MaxStressTol       1.0 GPa       # Default: 1.0 GPa
# Geometry Constraints
#%block GeometryConstraints
#	position from 1 to 44
#%endblock GeometryConstraints
BandLinesScale   pi/a
%block BandLines
 1   0.00000000  0.00000000  0.00000000
50   0.00000000  0.07809418  0.00000000
50   0.04509075  0.07809242  0.00000000
20   0.00000000  0.00000000  0.00000000
%endblock BandLines
************************** End of input data file *****************************

reinit: -----------------------------------------------------------------------
reinit: System Name: GRP_doping
reinit: -----------------------------------------------------------------------
reinit: System Label: GRP_doping                                                  
reinit: -----------------------------------------------------------------------

initatom: Reading input for the pseudopotentials and atomic orbitals ----------
 Species number:            1  Label: B Atomic number:           5
 Species number:            2  Label: C Atomic number:           6
Ground state valence configuration:   2s02  2p01
Reading pseudopotential information in formatted form from B.psf

Valence configuration for pseudopotential generation:
2s( 2.00) rc: 1.74
2p( 1.00) rc: 1.74
3d( 0.00) rc: 1.74
4f( 0.00) rc: 1.74
Ground state valence configuration:   2s02  2p02
Reading pseudopotential information in formatted form from C.psf

Valence configuration for pseudopotential generation:
2s( 2.00) rc: 1.54
2p( 2.00) rc: 1.54
3d( 0.00) rc: 1.54
4f( 0.00) rc: 1.54
For B, standard SIESTA heuristics set lmxkb to 3
 (one more than the basis l, including polarization orbitals).
Use PS.lmax or PS.KBprojectors blocks to override.
For C, standard SIESTA heuristics set lmxkb to 3
 (one more than the basis l, including polarization orbitals).
Use PS.lmax or PS.KBprojectors blocks to override.

<basis_specs>
===============================================================================
B                    Z=   5    Mass=  10.810        Charge= 0.17977+309
Lmxo=1 Lmxkb= 3    BasisType=split      Semic=F
L=0  Nsemic=0  Cnfigmx=2
          n=1  nzeta=2  polorb=0
            splnorm:   0.15000    
               vcte:    0.0000    
               rinn:    0.0000    
                rcs:    0.0000      0.0000    
            lambdas:    1.0000      1.0000    
L=1  Nsemic=0  Cnfigmx=2
          n=1  nzeta=2  polorb=1
            splnorm:   0.15000    
               vcte:    0.0000    
               rinn:    0.0000    
                rcs:    0.0000      0.0000    
            lambdas:    1.0000      1.0000    
-------------------------------------------------------------------------------
L=0  Nkbl=1  erefs: 0.17977+309
L=1  Nkbl=1  erefs: 0.17977+309
L=2  Nkbl=1  erefs: 0.17977+309
L=3  Nkbl=1  erefs: 0.17977+309
===============================================================================
</basis_specs>

atom: Called for B                     (Z =   5)

read_vps: Pseudopotential generation method:
read_vps: ATM3      Troullier-Martins                       
Total valence charge:    3.00000

read_vps: Pseudopotential includes a core correction:
read_vps: Pseudo-core for xc-correction

xc_check: Exchange-correlation functional:
xc_check: GGA Perdew, Burke & Ernzerhof 1996
V l=0 = -2*Zval/r beyond r=  1.7165
V l=1 = -2*Zval/r beyond r=  1.7165
V l=2 = -2*Zval/r beyond r=  1.7165
V l=3 = -2*Zval/r beyond r=  1.6951
All V_l potentials equal beyond r=  1.7165
This should be close to max(r_c) in ps generation
All pots = -2*Zval/r beyond r=  1.7165

VLOCAL1: 99.0% of the norm of Vloc inside     14.733 Ry
VLOCAL1: 99.9% of the norm of Vloc inside     33.577 Ry
atom: Maximum radius for 4*pi*r*r*local-pseudopot. charge    2.04484
atom: Maximum radius for r*vlocal+2*Zval:    1.75994
GHOST: No ghost state for L =  0
GHOST: No ghost state for L =  1
GHOST: No ghost state for L =  2
GHOST: No ghost state for L =  3

KBgen: Kleinman-Bylander projectors: 
   l= 0   rc=  1.897051   el= -0.693730   Ekb=  4.595746   kbcos=  0.286105
   l= 1   rc=  1.920920   el= -0.265236   Ekb= -2.350715   kbcos= -0.315747
   l= 2   rc=  2.044840   el=  0.002055   Ekb= -0.690767   kbcos= -0.013822
   l= 3   rc=  2.149707   el=  0.003188   Ekb= -0.315358   kbcos= -0.002055

KBgen: Total number of  Kleinman-Bylander projectors:   16
atom: -------------------------------------------------------------------------

atom: SANKEY-TYPE ORBITALS:
atom: Selected multiple-zeta basis: split     

SPLIT: Orbitals with angular momentum L= 0

SPLIT: Basis orbitals for state 2s

SPLIT: PAO cut-off radius determined from an
SPLIT: energy shift=  0.007350 Ry

   izeta = 1
                 lambda =    1.000000
                     rc =    5.422032
                 energy =   -0.686029
                kinetic =    0.576707
    potential(screened) =   -1.262736
       potential(ionic) =   -3.271094

   izeta = 2
                 rmatch =    4.222573
              splitnorm =    0.150000
                 energy =   -0.602132
                kinetic =    0.858975
    potential(screened) =   -1.461107
       potential(ionic) =   -3.582536

SPLIT: Orbitals with angular momentum L= 1

SPLIT: Basis orbitals for state 2p

SPLIT: PAO cut-off radius determined from an
SPLIT: energy shift=  0.007350 Ry

   izeta = 1
                 lambda =    1.000000
                     rc =    6.790259
                 energy =   -0.258578
                kinetic =    1.481412
    potential(screened) =   -1.739989
       potential(ionic) =   -3.657461

   izeta = 2
                 rmatch =    4.608740
              splitnorm =    0.150000
                 energy =   -0.173757
                kinetic =    2.186690
    potential(screened) =   -2.360447
       potential(ionic) =   -4.464260

POLgen: Perturbative polarization orbital with L=  2

POLgen: Polarization orbital for state 2p

   izeta = 1
                     rc =    6.790259
                 energy =    0.684082
                kinetic =    1.471481
    potential(screened) =   -0.787399
       potential(ionic) =   -2.406985
atom: Total number of Sankey-type orbitals: 13

atm_pop: Valence configuration (for local Pseudopot. screening):
 2s( 2.00)                                                            
 2p( 1.00)                                                            
Vna: chval, zval:    3.00000   3.00000

Vna:  Cut-off radius for the neutral-atom potential:   6.790259
comcore: Pseudo-core radius Rcore=  2.122997

atom: _________________________________________________________________________

<basis_specs>
===============================================================================
C                    Z=   6    Mass=  12.010        Charge= 0.17977+309
Lmxo=1 Lmxkb= 3    BasisType=split      Semic=F
L=0  Nsemic=0  Cnfigmx=2
          n=1  nzeta=2  polorb=0
            splnorm:   0.15000    
               vcte:    0.0000    
               rinn:    0.0000    
                rcs:    0.0000      0.0000    
            lambdas:    1.0000      1.0000    
L=1  Nsemic=0  Cnfigmx=2
          n=1  nzeta=2  polorb=1
            splnorm:   0.15000    
               vcte:    0.0000    
               rinn:    0.0000    
                rcs:    0.0000      0.0000    
            lambdas:    1.0000      1.0000    
-------------------------------------------------------------------------------
L=0  Nkbl=1  erefs: 0.17977+309
L=1  Nkbl=1  erefs: 0.17977+309
L=2  Nkbl=1  erefs: 0.17977+309
L=3  Nkbl=1  erefs: 0.17977+309
===============================================================================
</basis_specs>

atom: Called for C                     (Z =   6)

read_vps: Pseudopotential generation method:
read_vps: ATM3      Troullier-Martins                       
Total valence charge:    4.00000

read_vps: Pseudopotential includes a core correction:
read_vps: Pseudo-core for xc-correction

xc_check: Exchange-correlation functional:
xc_check: GGA Perdew, Burke & Ernzerhof 1996
V l=0 = -2*Zval/r beyond r=  1.5227
V l=1 = -2*Zval/r beyond r=  1.5227
V l=2 = -2*Zval/r beyond r=  1.5227
V l=3 = -2*Zval/r beyond r=  1.5038
All V_l potentials equal beyond r=  1.5227
This should be close to max(r_c) in ps generation
All pots = -2*Zval/r beyond r=  1.5227

VLOCAL1: 99.0% of the norm of Vloc inside     18.722 Ry
VLOCAL1: 99.9% of the norm of Vloc inside     42.668 Ry
atom: Maximum radius for 4*pi*r*r*local-pseudopot. charge    1.83678
atom: Maximum radius for r*vlocal+2*Zval:    1.58088
GHOST: No ghost state for L =  0
GHOST: No ghost state for L =  1
GHOST: No ghost state for L =  2
GHOST: No ghost state for L =  3

KBgen: Kleinman-Bylander projectors: 
   l= 0   rc=  1.704034   el= -1.009801   Ekb=  5.335044   kbcos=  0.316824
   l= 1   rc=  1.704034   el= -0.388707   Ekb= -3.785862   kbcos= -0.366464
   l= 2   rc=  1.791422   el=  0.001971   Ekb= -0.970471   kbcos= -0.009212
   l= 3   rc=  1.859892   el=  0.003065   Ekb= -0.399525   kbcos= -0.001223

KBgen: Total number of  Kleinman-Bylander projectors:   16
atom: -------------------------------------------------------------------------

atom: SANKEY-TYPE ORBITALS:
atom: Selected multiple-zeta basis: split     

SPLIT: Orbitals with angular momentum L= 0

SPLIT: Basis orbitals for state 2s

SPLIT: PAO cut-off radius determined from an
SPLIT: energy shift=  0.007350 Ry

   izeta = 1
                 lambda =    1.000000
                     rc =    4.632753
                 energy =   -1.002270
                kinetic =    0.855760
    potential(screened) =   -1.858031
       potential(ionic) =   -5.417575

   izeta = 2
                 rmatch =    3.431921
              splitnorm =    0.150000
                 energy =   -0.867111
                kinetic =    1.300804
    potential(screened) =   -2.167915
       potential(ionic) =   -5.962684

SPLIT: Orbitals with angular momentum L= 1

SPLIT: Basis orbitals for state 2p

SPLIT: PAO cut-off radius determined from an
SPLIT: energy shift=  0.007350 Ry

   izeta = 1
                 lambda =    1.000000
                     rc =    5.658549
                 energy =   -0.381140
                kinetic =    2.399701
    potential(screened) =   -2.780841
       potential(ionic) =   -6.206085

   izeta = 2
                 rmatch =    3.653288
              splitnorm =    0.150000
                 energy =   -0.249149
                kinetic =    3.542762
    potential(screened) =   -3.791911
       potential(ionic) =   -7.581078

POLgen: Perturbative polarization orbital with L=  2

POLgen: Polarization orbital for state 2p

   izeta = 1
                     rc =    5.658549
                 energy =    1.109913
                kinetic =    2.304789
    potential(screened) =   -1.194876
       potential(ionic) =   -4.013592
atom: Total number of Sankey-type orbitals: 13

atm_pop: Valence configuration (for local Pseudopot. screening):
 2s( 2.00)                                                            
 2p( 2.00)                                                            
Vna: chval, zval:    4.00000   4.00000

Vna:  Cut-off radius for the neutral-atom potential:   5.658549
comcore: Pseudo-core radius Rcore=  1.791422

atom: _________________________________________________________________________

prinput: Basis input ----------------------------------------------------------

PAO.BasisType split     

%block ChemicalSpeciesLabel
    1    5 B                       # Species index, atomic number, species label
    2    6 C                       # Species index, atomic number, species label
%endblock ChemicalSpeciesLabel

%block PAO.Basis                 # Define Basis set
B                     2                    # Species label, number of l-shells
 n=2   0   2                         # n, l, Nzeta 
   5.422      4.223   
   1.000      1.000   
 n=2   1   2 P   1                   # n, l, Nzeta, Polarization, NzetaPol
   6.790      4.609   
   1.000      1.000   
C                     2                    # Species label, number of l-shells
 n=2   0   2                         # n, l, Nzeta 
   4.633      3.432   
   1.000      1.000   
 n=2   1   2 P   1                   # n, l, Nzeta, Polarization, NzetaPol
   5.659      3.653   
   1.000      1.000   
%endblock PAO.Basis

prinput: ----------------------------------------------------------------------

coor:   Atomic-coordinates input format  =     Fractional

siesta: Atomic coordinates (Bohr) and species
siesta:      6.95932  17.38257   0.00000  1        1
siesta:      4.63094  18.72698   0.00000  1        2
siesta:      4.63094  21.41544   0.00000  1        3
siesta:     -0.02582  18.72698   0.00000  1        4
siesta:     -0.02582  21.41544   0.00000  1        5
siesta:      2.30256  22.75985   0.00000  1        6
siesta:     -2.35420  22.75985   0.00000  1        7
siesta:     -2.35420  25.44831   0.00000  1        8
siesta:      4.63094  29.48119   0.00000  1        9
siesta:     -4.68258  26.79272   0.00000  1       10
siesta:     -4.68258  29.48119   0.00000  1       11
siesta:      2.30256  30.82560   0.00000  1       12
siesta:     -2.35420  30.82560   0.00000  1       13
siesta:     -2.35420  33.51406   0.00000  1       14
siesta:     -0.02582  34.85847   0.00000  1       15
siesta:     -0.02582  37.54693   0.00000  1       16
siesta:     -0.02582   2.59549   0.00000  2       17
siesta:     -0.02582   5.28395   0.00000  2       18
siesta:     -2.35420  38.89134   0.00000  2       19
siesta:     -2.35420  41.57980   0.00000  2       20
siesta:      2.30256  38.89134   0.00000  2       21
siesta:      2.30256  41.57980   0.00000  2       22
siesta:      4.63094  34.85847   0.00000  2       23
siesta:      4.63094  37.54693   0.00000  2       24
siesta:      6.95932  30.82560   0.00000  2       25
siesta:      6.95932  33.51406   0.00000  2       26
siesta:      9.28770  26.79272   0.00000  2       27
siesta:      9.28770  29.48119   0.00000  2       28
siesta:     -4.68258  34.85847   0.00000  2       29
siesta:     -4.68258  37.54693   0.00000  2       30
siesta:      2.30256   6.62836   0.00000  2       31
siesta:      2.30256   9.31683   0.00000  2       32
siesta:      4.63094  10.66124   0.00000  2       33
siesta:      4.63094  13.34970   0.00000  2       34
siesta:      6.95932  14.69411   0.00000  2       35
siesta:      9.28770  18.72698   0.00000  2       36
siesta:      9.28770  21.41544   0.00000  2       37
siesta:     11.61608  22.75985   0.00000  2       38
siesta:     11.61608  25.44831   0.00000  2       39
siesta:     -2.35420   6.62836   0.00000  2       40
siesta:     -2.35420   9.31683   0.00000  2       41
siesta:     -0.02582  10.66124   0.00000  2       42
siesta:     -0.02582  13.34970   0.00000  2       43
siesta:      2.30256  14.69411   0.00000  2       44
siesta:      2.30256  17.38257   0.00000  2       45
siesta:      6.95932  22.75985   0.00000  2       46
siesta:      6.95932  25.44831   0.00000  2       47
siesta:     -4.68258  10.66124   0.00000  2       48
siesta:     -4.68258  13.34970   0.00000  2       49
siesta:     -2.35420  14.69411   0.00000  2       50
siesta:     -2.35420  17.38257   0.00000  2       51
siesta:      2.30256  25.44831   0.00000  2       52
siesta:     -7.01096  14.69411   0.00000  2       53
siesta:     -7.01096  17.38257   0.00000  2       54
siesta:     -4.68258  18.72698   0.00000  2       55
siesta:     -4.68258  21.41544   0.00000  2       56
siesta:     -9.33934  18.72698   0.00000  2       57
siesta:     -9.33934  21.41544   0.00000  2       58
siesta:     -7.01096  22.75985   0.00000  2       59
siesta:     -7.01096  25.44831   0.00000  2       60
siesta:    -11.66772  22.75985   0.00000  2       61
siesta:    -11.66772  25.44831   0.00000  2       62
siesta:     -9.33934  26.79272   0.00000  2       63
siesta:     -9.33934  29.48119   0.00000  2       64
siesta:      4.63094  26.79272   0.00000  2       65
siesta:     -0.02582  26.79272   0.00000  2       66
siesta:     -0.02582  29.48119   0.00000  2       67
siesta:      2.30256  33.51406   0.00000  2       68
siesta:     -7.01096  30.82560   0.00000  2       69
siesta:     -7.01096  33.51406   0.00000  2       70
siesta:     -0.02582  42.92421   0.00000  2       71
siesta:     -0.02582  45.61267   0.00000  2       72

siesta: System type = slab      

initatomlists: Number of atoms, orbitals, and projectors:     72   936  1152

siesta: ******************** Simulation parameters ****************************
siesta:
siesta: The following are some of the parameters of the simulation.
siesta: A complete list of the parameters used, including default values,
siesta: can be found in file out.fdf
siesta:
redata: Non-Collinear-spin run           =     F
redata: SpinPolarized (Up/Down) run      =     F
redata: Number of spin components        =     1
redata: Long output                      =     F
redata: Number of Atomic Species         =        2
redata: Charge density info will appear in .RHO file
redata: Write Mulliken Pop.              =     NO
redata: Mesh Cutoff                      =   200.0000  Ry
redata: Net charge of the system         =     0.0000 |e|
redata: Max. number of SCF Iter          =      500
redata: SCF convergence failure will abort job
redata: Performing Pulay mixing using    =    10 iterations
redata: Mix DM in first SCF step ?       =     F
redata: Write Pulay info on disk?        =     F
redata: Discard 1st Pulay DM after  kick =     F
redata: New DM Mixing Weight             =     0.0500
redata: New DM Occupancy tolerance       = 0.000000000001
redata: No kicks to SCF
redata: DM Mixing Weight for Kicks       =     0.5000
redata: DM Tolerance for SCF             =     0.000100
redata: Require Energy convergence for SCF =     F
redata: DM Energy tolerance for SCF      =     0.000100 eV
redata: Require Harris convergence for SCF =     F
redata: DM Harris energy tolerance for SCF =     0.000100 eV
redata: Using Saved Data (generic)   =     F
redata: Use continuation files for DM    =     T
redata: Neglect nonoverlap interactions  =     F
redata: Method of Calculation            =     Diagonalization
redata: Divide and Conquer               =     T
redata: Electronic Temperature           =     0.0019  Ry
redata: Fix the spin of the system       =     F
redata: Dynamics option                  =     Verlet MD run
redata: Initial MD time step             =        1
redata:   Final MD time step             =        1
redata: Length of MD time step           =     1.0000  fs
redata: Initial Temperature of MD run    =     0.0000  K
redata: Perform a MD quench              =     F
redata: ***********************************************************************
Total number of electrons:   272.000000
Total ionic charge:   272.000000

* ProcessorY, Blocksize:    3  24

k-point displ. along   1 input, could be:     0.50    0.00
k-point displ. along   2 input, could be:     0.50    0.00
 Kpoints in:          231 . Kpoints trimmed:          231

siesta: k-grid: Number of k-points =   231
siesta: k-grid: Cutoff (effective) =     5.000 Ang
siesta: k-grid: Supercell and displacements
siesta: k-grid:   21   0   0      0.500
siesta: k-grid:    0  21   0      0.500
siesta: k-grid:    0   0   1      0.000
Naive supercell factors:     2    2    2

superc: Internal auxiliary supercell:     2 x     2 x     2  =       8
superc: Number of atoms, orbitals, and projectors:    576   7488   9216

* Maximum dynamic memory allocated =     4 MB

siesta:                 ==============================
                            Begin MD step =      1
                        ==============================

superc: Internal auxiliary supercell:     2 x     2 x     2  =       8
superc: Number of atoms, orbitals, and projectors:    576   7488   9216

outcell: Unit cell vectors (Ang):
       12.804619    7.392750    0.000000
        0.000000   14.785500    0.000000
        0.000000    0.000000   10.000000

outcell: Cell vector modules (Ang)   :   14.785500   14.785500   10.000000
outcell: Cell angles (23,13,12) (deg):     90.0000     90.0000     60.0000
outcell: Cell volume (Ang**3)        :   1893.2269
New_DM. Step:     1
Initializing Density Matrix...

InitMesh: MESH =   120 x   120 x    90 =     1296000
InitMesh: Mesh cutoff (required, used) =   200.000   223.865 Ry

* Maximum dynamic memory allocated =   157 MB

stepf: Fermi-Dirac step function

siesta: Program's energy decomposition (eV):
siesta: Ebs     =     -5604.648280
siesta: Eions   =     16354.103692
siesta: Ena     =      4333.342124
siesta: Ekin    =      5534.369168
siesta: Enl     =       771.463906
siesta: DEna    =        -0.000010
siesta: DUscf   =         0.000000
siesta: DUext   =         0.000000
siesta: Exc     =     -4193.367004
siesta: eta*DQ  =         0.000000
siesta: Emadel  =         0.000000
siesta: Emeta   =         0.000000
siesta: Emolmec =         0.000000
siesta: Ekinion =         0.000000
siesta: Eharris =     -9645.181486
siesta: Etot    =     -9908.295508
siesta: FreeEng =     -9908.295508

siesta: iscf   Eharris(eV)      E_KS(eV)   FreeEng(eV)   dDmax  Ef(eV)
siesta:    1    -9645.1815    -9908.2955    -9908.2955  7.1302 -8.3694
timer: Routine,Calls,Time,% = IterSCF        1    3038.936  99.59
elaps: Routine,Calls,Wall,% = IterSCF        1     253.847  99.59
siesta:    2   -14748.6876    -8864.8523    -8864.9335 19.4952 -3.3505
siesta:    3    -9597.0654    -9767.3550    -9767.4232  3.3088 -6.8836
siesta:    4    -9574.3047    -9642.4995    -9642.5022  1.3256 -5.6297
siesta:    5    -9521.8452    -9578.0871    -9578.0908  1.0753 -5.6959
siesta:    6    -9505.8191    -9513.7135    -9513.7853  0.9384 -5.4087
siesta:    7    -9500.3232    -9498.7526    -9498.7596  0.8263 -5.4439
siesta:    8    -9498.0797    -9495.5864    -9495.6498  0.8086 -5.4965
siesta:    9    -9495.5969    -9487.5762    -9487.6443  0.6977 -5.4286
siesta:   10    -9496.1021    -9472.0090    -9472.0772  0.4372 -5.2315
siesta:   11    -9494.9135    -9468.2129    -9468.2685  0.3252 -5.1983
siesta:   12    -9494.8596    -9464.1923    -9464.2628  0.2092 -5.1931
siesta:   13    -9494.0909    -9465.8434    -9465.8956  0.1778 -5.2468
siesta:   14    -9493.5590    -9471.4753    -9471.5456  0.1893 -5.2703
siesta:   15    -9493.1608    -9477.1723    -9477.2480  0.1305 -5.2999
siesta:   16    -9493.1342    -9480.9514    -9481.0222  0.1854 -5.3194
siesta:   17    -9493.0699    -9481.8620    -9481.9369  0.0671 -5.3185
siesta:   18    -9493.0553    -9483.9085    -9483.9760  0.0542 -5.3243
siesta:   19    -9493.0098    -9489.0046    -9489.0758  0.0254 -5.3422
siesta:   20    -9493.0018    -9490.0169    -9490.0915  0.0208 -5.3440
siesta:   21    -9492.9945    -9491.5009    -9491.5745  0.0256 -5.3416
siesta:   22    -9492.9929    -9492.3380    -9492.4106  0.0211 -5.3360
siesta:   23    -9492.9912    -9493.0016    -9493.0742  0.0075 -5.3316
siesta:   24    -9492.9892    -9493.2719    -9493.3452  0.0053 -5.3273
siesta:   25    -9492.9891    -9493.1218    -9493.1959  0.0036 -5.3256
siesta:   26    -9492.9890    -9493.1193    -9493.1932  0.0032 -5.3251
siesta:   27    -9492.9889    -9493.1067    -9493.1807  0.0029 -5.3253
siesta:   28    -9492.9890    -9493.0751    -9493.1490  0.0014 -5.3255
siesta:   29    -9492.9890    -9493.0223    -9493.0961  0.0007 -5.3257
siesta:   30    -9492.9890    -9492.9921    -9493.0659  0.0006 -5.3257
siesta:   31    -9492.9890    -9492.9894    -9493.0632  0.0004 -5.3258
siesta:   32    -9492.9890    -9492.9949    -9493.0687  0.0002 -5.3259
siesta:   33    -9492.9890    -9493.0068    -9493.0807  0.0001 -5.3259
siesta:   34    -9492.9890    -9493.0106    -9493.0844  0.0001 -5.3259
siesta:   35    -9492.9890    -9493.0113    -9493.0852  0.0001 -5.3259
siesta:   36    -9492.9889    -9493.0058    -9493.0797  0.0001 -5.3259

siesta: E_KS(eV) =            -9493.0018

siesta: E_KS - E_eggbox =     -9493.0018

siesta: Atomic forces (eV/Ang):
----------------------------------------
   Tot   -0.100106    0.062334    0.000000
----------------------------------------
   Max  558.546217
   Res  148.391238    sqrt( Sum f_i^2 / 3N )
----------------------------------------
   Max  558.546217    constrained

Stress-tensor-Voigt (kbar):     -786.98    -2672.29       -0.54       -9.29        0.00        0.00
(Free)E + p*V (eV/cell)    -8130.3201
Target enthalpy (eV/cell)    -9493.0756

siesta: Stress tensor (static) (eV/Ang**3):
        -0.491189   -0.005800    0.000000
        -0.005800   -1.667892    0.000000
         0.000000    0.000000   -0.000336

siesta: Pressure (static):       1153.26836801  kBar

siesta: Stress tensor (total) (eV/Ang**3):
        -0.491189   -0.005800    0.000000
        -0.005800   -1.667892    0.000000
         0.000000    0.000000   -0.000336

siesta: Pressure (total):       1153.26836801  kBar

siesta: Temp_ion =       0.000 K

* Maximum dynamic memory allocated =   169 MB
Computing bands...

siesta: Program's energy decomposition (eV):
siesta: Ebs     =     -4241.218013
siesta: Eions   =     16354.103692
siesta: Ena     =      4333.342124
siesta: Ekin    =      8408.337223
siesta: Enl     =      -844.105571
siesta: DEna    =      -779.117138
siesta: DUscf   =       104.284811
siesta: DUext   =         0.000000
siesta: Exc     =     -4361.639528
siesta: eta*DQ  =         0.000000
siesta: Emadel  =         0.000000
siesta: Emeta   =         0.000000
siesta: Emolmec =         0.000000
siesta: Ekinion =         0.000000
siesta: Eharris =     -9492.988948
siesta: Etot    =     -9493.001771
siesta: FreeEng =     -9493.075639

siesta: Final energy (eV):
siesta:  Band Struct. =   -4241.218013
siesta:       Kinetic =    8408.337223
siesta:       Hartree =   27182.247448
siesta:    Ext. field =       0.000000
siesta:   Exch.-corr. =   -4361.639528
siesta:  Ion-electron =  -62473.301640
siesta:       Ion-ion =   21751.354726
siesta:       Ekinion =       0.000000
siesta:         Total =   -9493.001771

siesta: Atomic forces (eV/Ang):
siesta:      1    9.195637   -3.160612    0.000000
siesta:      2   -5.930604   -3.181476    0.000000
siesta:      3    4.404397    2.050132    0.000000
siesta:      4   -0.213228  410.088627    0.000000
siesta:      5    1.233899   -0.473054    0.000000
siesta:      6   -1.153270    2.901770    0.000000
siesta:      7   -5.994014   -3.358813    0.000000
siesta:      8    6.426483    4.888233    0.000000
siesta:      9    1.169677   -2.210476    0.000000
siesta:     10   -5.488610   -4.097998    0.000000
siesta:     11    0.627414    3.140236    0.000000
siesta:     12   16.645237    5.759878    0.000000
siesta:     13  -16.262462    2.673471    0.000000
siesta:     14  -17.860851 -396.102173    0.000000
siesta:     15   -2.814306  106.616785    0.000000
siesta:     16   -2.235064 -388.689229    0.000000
siesta:     17    1.632800  548.316405    0.000000
siesta:     18   -5.390444 -133.523003    0.000000
siesta:     19    7.446048  115.615484    0.000000
siesta:     20  -11.796760 -548.582368    0.000000
siesta:     21   -7.127477  116.865293    0.000000
siesta:     22   15.183537 -550.076730    0.000000
siesta:     23   25.760844    4.455482    0.000000
siesta:     24   32.714807 -547.488384    0.000000
siesta:     25    6.883887    2.769969    0.000000
siesta:     26   -2.851392    1.731112    0.000000
siesta:     27    3.107474    1.951004    0.000000
siesta:     28   -1.917996    0.086441    0.000000
siesta:     29  -24.669998    0.003028    0.000000
siesta:     30  -29.352350 -549.743512    0.000000
siesta:     31   25.929692  554.698218    0.000000
siesta:     32   -2.108249 -129.655460    0.000000
siesta:     33   36.190589  549.634668    0.000000
siesta:     34   27.314089   -5.471636    0.000000
siesta:     35   -4.518106   -4.544947    0.000000
siesta:     36    0.433601    2.291319    0.000000
siesta:     37    3.075057   -1.887809    0.000000
siesta:     38   -0.200522    7.041909    0.000000
siesta:     39   -0.250865   -6.581959    0.000000
siesta:     40  -18.712507  402.520647    0.000000
siesta:     41    2.338955 -122.932945    0.000000
siesta:     42   -0.030930  406.042278    0.000000
siesta:     43   -0.433434 -122.197897    0.000000
siesta:     44   24.350575  558.383489    0.000000
siesta:     45   19.145929   -2.947975    0.000000
siesta:     46    2.199415    3.104512    0.000000
siesta:     47   -0.556272   -1.524480    0.000000
siesta:     48  -37.003745  551.472987    0.000000
siesta:     49  -27.162366   -4.331888    0.000000
siesta:     50  -27.733857  558.546217    0.000000
siesta:     51  -21.890931   -2.575299    0.000000
siesta:     52    0.945062    3.846033    0.000000
siesta:     53    2.997293   -1.989990    0.000000
siesta:     54   -2.795952   -0.355212    0.000000
siesta:     55    1.035307    1.635808    0.000000
siesta:     56   -2.109863   -1.894850    0.000000
siesta:     57    1.290598   -0.785558    0.000000
siesta:     58   -2.664748   -1.646508    0.000000
siesta:     59   -0.720833    0.690496    0.000000
siesta:     60   -2.421207   -2.123517    0.000000
siesta:     61    0.337493    7.432084    0.000000
siesta:     62    0.202976   -7.329495    0.000000
siesta:     63   -2.478101    1.330413    0.000000
siesta:     64    1.794430    0.886321    0.000000
siesta:     65    0.168086   -2.736986    0.000000
siesta:     66    2.447336    0.679916    0.000000
siesta:     67   -1.148389 -557.656593    0.000000
siesta:     68   16.292018 -548.262385    0.000000
siesta:     69   -7.753225    1.567275    0.000000
siesta:     70    2.669848    1.664858    0.000000
siesta:     71    0.949383  124.332532    0.000000
siesta:     72   -0.887051 -407.531777    0.000000
siesta: ----------------------------------------
siesta:    Tot   -0.100106    0.062334    0.000000

siesta: Stress tensor (static) (eV/Ang**3):
siesta:    -0.491189   -0.005800    0.000000
siesta:    -0.005800   -1.667892    0.000000
siesta:     0.000000    0.000000   -0.000336

siesta: Cell volume =       1893.226884 Ang**3

siesta: Pressure (static):
siesta:                Solid            Molecule  Units
siesta:           0.00783960          0.11402901  Ry/Bohr**3
siesta:           0.71980572         10.46975588  eV/Ang**3
siesta:        1153.26836801      16774.57954805  kBar
(Free)E+ p_basis*V_orbitals  =       -9457.282767
(Free)Eharris+ p_basis*V_orbitals  =       -9457.265887

siesta: Electric dipole (a.u.)  =    0.000000    0.000000    0.000000
siesta: Electric dipole (Debye) =    0.000000    0.000000    0.000000

* Maximum dynamic memory allocated : Node    0 =   169 MB
* Maximum dynamic memory allocated : Node    1 =    67 MB
* Maximum dynamic memory allocated : Node    2 =    69 MB
* Maximum dynamic memory allocated : Node    3 =   157 MB
* Maximum dynamic memory allocated : Node    4 =   165 MB
* Maximum dynamic memory allocated : Node    5 =    61 MB
* Maximum dynamic memory allocated : Node    6 =    62 MB
* Maximum dynamic memory allocated : Node    7 =   155 MB
* Maximum dynamic memory allocated : Node    8 =   151 MB
* Maximum dynamic memory allocated : Node    9 =    60 MB
* Maximum dynamic memory allocated : Node   10 =    62 MB
* Maximum dynamic memory allocated : Node   11 =   145 MB

* Maximum memory occured during matrixMtoO                    

timer: CPU execution times:
timer:  Routine       Calls   Time/call    Tot.time        %
timer:  siesta            1  106549.051  106549.051   100.00
timer:  Setup             1       3.400       3.400     0.00
timer:  bands             3     226.039     678.117     0.64
timer:  writewave         1       0.024       0.024     0.00
timer:  KSV_init          1       0.004       0.004     0.00
timer:  IterMD            1  105860.559  105860.559    99.35
timer:  hsparse           1       0.285       0.285     0.00
timer:  overlap           1       7.417       7.417     0.01
timer:  IterSCF          36    2936.284  105706.212    99.21
timer:  kinefsm           2       3.777       7.554     0.01
timer:  nlefsm            2      20.373      40.745     0.04
timer:  DHSCF            37      79.418    2938.475     2.76
timer:  DHSCF1            1       1.192       1.192     0.00
timer:  DHSCF2            1      32.639      32.639     0.03
timer:  REORD           298       0.002       0.682     0.00
timer:  POISON           38       0.448      17.014     0.02
timer:  DHSCF3           37      77.736    2876.229     2.70
timer:  rhoofd           37      17.601     651.223     0.61
timer:  cellXC           37       2.441      90.309     0.08
timer:  vmat             37      37.156    1374.768     1.29
timer:  MolMec            2       0.000       0.000     0.00
timer:  diagon           36    2855.731  102806.305    96.49
timer:  c-eigval       8437       5.581   47089.006    44.19
timer:  c-buildHS      8437       0.036     301.939     0.28
timer:  cdiag         16753       5.676   95096.076    89.25
timer:  cdiag1        16753       0.259    4342.831     4.08
timer:  cdiag2        16753       1.836   30751.612    28.86
timer:  cdiag3        16753       3.375   56544.984    53.07
timer:  cdiag4        16753       0.086    1434.202     1.35
timer:  c-eigvec       8316       5.840   48565.122    45.58
timer:  c-buildD       8316       0.936    7784.653     7.31
timer:  DHSCF4            1      28.152      28.152     0.03
timer:  dfscf             1      26.048      26.048     0.02
timer:  overfsm           1       0.332       0.332     0.00
timer:  optical           1       6.363       6.363     0.01
  

elaps: ELAPSED times:
elaps:  Routine       Calls   Time/call    Tot.time        %
elaps:  siesta            1    8899.997    8899.997   100.00
elaps:  Setup             1       0.284       0.284     0.00
elaps:  bands             3      18.896      56.689     0.64
elaps:  writewave         1       0.002       0.002     0.00
elaps:  KSV_init          1       0.000       0.000     0.00
elaps:  IterMD            1    8842.488    8842.488    99.35
elaps:  hsparse           1       0.028       0.028     0.00
elaps:  overlap           1       0.716       0.716     0.01
elaps:  IterSCF          36     245.267    8829.595    99.21
elaps:  kinefsm           2       0.367       0.734     0.01
elaps:  nlefsm            2       1.714       3.427     0.04
elaps:  DHSCF            37       6.695     247.725     2.78
elaps:  DHSCF1            1       0.102       0.102     0.00
elaps:  DHSCF2            1       2.725       2.725     0.03
elaps:  REORD           298       0.000       0.090     0.00
elaps:  POISON           38       0.038       1.432     0.02
elaps:  DHSCF3           37       6.494     240.294     2.70
elaps:  rhoofd           37       3.080     113.965     1.28
elaps:  cellXC           37       0.203       7.526     0.08
elaps:  vmat             37       3.105     114.875     1.29
elaps:  MolMec            2       0.000       0.000     0.00
elaps:  diagon           36     238.545    8587.604    96.49
elaps:  c-eigval       8437       0.466    3933.272    44.19
elaps:  c-buildHS      8437       0.004      32.174     0.36
elaps:  cdiag         16753       0.469    7860.019    88.31
elaps:  cdiag1        16753       0.021     354.453     3.98
elaps:  cdiag2        16753       0.153    2571.014    28.89
elaps:  cdiag3        16753       0.282    4729.943    53.15
elaps:  cdiag4        16753       0.007     115.003     1.29
elaps:  c-eigvec       8316       0.479    3985.965    44.79
elaps:  c-buildD       8316       0.087     720.779     8.10
elaps:  DHSCF4            1       4.566       4.566     0.05
elaps:  dfscf             1       4.307       4.307     0.05
elaps:  overfsm           1       0.034       0.034     0.00
elaps:  optical           1       0.000       0.000     0.00
  
>> End of run:   3-MAY-2016   4:54:24
