Siesta Version:                                        siesta-3.2-pl-3
Architecture  : x86_64-unknown-linux-gnu--unknown
Compiler flags: mpiifort -g -O2 -fPIC -xSSE4.1 -fp-model source -shared-intel 
PARALLEL version

* Running on    8 nodes in parallel
>> Start of run:  24-APR-2016   3:26:21

                           ***********************       
                           *  WELCOME TO SIESTA  *       
                           ***********************       

reinit: Reading from standard input
************************** Dump of input data file ****************************
#(1) General system descriptors
SystemName            GRP_doping    # Descriptive name of the system
SystemLabel           GRP_doping    # Short name for naming files
%include STRUCT.fdf
%include KPT.fdf
%include BASIS.fdf
#%include TS.fdf # for transiesta calculation
#(4) DFT, Grid, SCF
XC.functional         GGA           # LDA or GGA (default = LDA)
XC.authors            PBE           # CA (Ceperley-Aldr) = PZ
                                    #    (Perdew-Zunger) - LDA - Default
                                    # PW92 (Perdew-Wang-92) - LDA
                                    # PBE (Perdew-Burke-Ernzerhof) - GGA
MeshCutoff            200.000000    Ry      # Default: 50.0 Ry ~ 0.444 Bohr
                                    #         100.0 Ry ~ 0.314 Bohr
MaxSCFIterations      500           # Default: 50
DM.MixingWeight       0.05          # Default: 0.25
DM.NumberPulay        10            # Default: 0
DM.PulayOnFile        F             # SystemLabel.P1, SystemLabel.P2
DM.Tolerance          1.d-4         # Default: 1.d-4
DM.UseSaveDM          .true.        # because of the bug
SCFMustConverge       .true.
NeglNonOverlapInt     F             # Default: F
#(5) Eigenvalue problem: order-N or diagonalization
SolutionMethod        Diagon        # or Transiesta
ElectronicTemperature 300.0 K       # Default: 300.0 K
#(6) Molecular dynamics and relaxations
#MD.TypeOfRun          CG            # Type of dynamics:
#MD.VariableCell       F
#MD.NumCGsteps         0           # 0 for single-point / 100 for gopt
#MD.MaxCGDispl         0.2 Bohr      # Default: 0.2 Bohr
#MD.MaxForceTol        0.02 eV/Ang   # Default: 0.04 eV/Ang
#MD.MaxStressTol       1.0 GPa       # Default: 1.0 GPa
# Geometry Constraints
#%block GeometryConstraints
#	position from 1 to 44
#%endblock GeometryConstraints
BandLinesScale   pi/a
%block BandLines
 1   0.00000000  0.00000000  0.00000000
50   0.00000000  0.07809418  0.00000000
50   0.04509075  0.07809242  0.00000000
20   0.00000000  0.00000000  0.00000000
%endblock BandLines
************************** End of input data file *****************************

reinit: -----------------------------------------------------------------------
reinit: System Name: GRP_doping
reinit: -----------------------------------------------------------------------
reinit: System Label: GRP_doping                                                  
reinit: -----------------------------------------------------------------------

initatom: Reading input for the pseudopotentials and atomic orbitals ----------
 Species number:            1  Label: B Atomic number:           5
 Species number:            2  Label: C Atomic number:           6
Ground state valence configuration:   2s02  2p01
Reading pseudopotential information in formatted form from B.psf

Valence configuration for pseudopotential generation:
2s( 2.00) rc: 1.74
2p( 1.00) rc: 1.74
3d( 0.00) rc: 1.74
4f( 0.00) rc: 1.74
Ground state valence configuration:   2s02  2p02
Reading pseudopotential information in formatted form from C.psf

Valence configuration for pseudopotential generation:
2s( 2.00) rc: 1.54
2p( 2.00) rc: 1.54
3d( 0.00) rc: 1.54
4f( 0.00) rc: 1.54
For B, standard SIESTA heuristics set lmxkb to 3
 (one more than the basis l, including polarization orbitals).
Use PS.lmax or PS.KBprojectors blocks to override.
For C, standard SIESTA heuristics set lmxkb to 3
 (one more than the basis l, including polarization orbitals).
Use PS.lmax or PS.KBprojectors blocks to override.

<basis_specs>
===============================================================================
B                    Z=   5    Mass=  10.810        Charge= 0.17977+309
Lmxo=1 Lmxkb= 3    BasisType=split      Semic=F
L=0  Nsemic=0  Cnfigmx=2
          n=1  nzeta=2  polorb=0
            splnorm:   0.15000    
               vcte:    0.0000    
               rinn:    0.0000    
                rcs:    0.0000      0.0000    
            lambdas:    1.0000      1.0000    
L=1  Nsemic=0  Cnfigmx=2
          n=1  nzeta=2  polorb=1
            splnorm:   0.15000    
               vcte:    0.0000    
               rinn:    0.0000    
                rcs:    0.0000      0.0000    
            lambdas:    1.0000      1.0000    
-------------------------------------------------------------------------------
L=0  Nkbl=1  erefs: 0.17977+309
L=1  Nkbl=1  erefs: 0.17977+309
L=2  Nkbl=1  erefs: 0.17977+309
L=3  Nkbl=1  erefs: 0.17977+309
===============================================================================
</basis_specs>

atom: Called for B                     (Z =   5)

read_vps: Pseudopotential generation method:
read_vps: ATM3      Troullier-Martins                       
Total valence charge:    3.00000

read_vps: Pseudopotential includes a core correction:
read_vps: Pseudo-core for xc-correction

xc_check: Exchange-correlation functional:
xc_check: GGA Perdew, Burke & Ernzerhof 1996
V l=0 = -2*Zval/r beyond r=  1.7165
V l=1 = -2*Zval/r beyond r=  1.7165
V l=2 = -2*Zval/r beyond r=  1.7165
V l=3 = -2*Zval/r beyond r=  1.6951
All V_l potentials equal beyond r=  1.7165
This should be close to max(r_c) in ps generation
All pots = -2*Zval/r beyond r=  1.7165

VLOCAL1: 99.0% of the norm of Vloc inside     14.733 Ry
VLOCAL1: 99.9% of the norm of Vloc inside     33.577 Ry
atom: Maximum radius for 4*pi*r*r*local-pseudopot. charge    2.04484
atom: Maximum radius for r*vlocal+2*Zval:    1.75994
GHOST: No ghost state for L =  0
GHOST: No ghost state for L =  1
GHOST: No ghost state for L =  2
GHOST: No ghost state for L =  3

KBgen: Kleinman-Bylander projectors: 
   l= 0   rc=  1.897051   el= -0.693730   Ekb=  4.595746   kbcos=  0.286105
   l= 1   rc=  1.920920   el= -0.265236   Ekb= -2.350715   kbcos= -0.315747
   l= 2   rc=  2.044840   el=  0.002055   Ekb= -0.690767   kbcos= -0.013822
   l= 3   rc=  2.149707   el=  0.003188   Ekb= -0.315358   kbcos= -0.002055

KBgen: Total number of  Kleinman-Bylander projectors:   16
atom: -------------------------------------------------------------------------

atom: SANKEY-TYPE ORBITALS:
atom: Selected multiple-zeta basis: split     

SPLIT: Orbitals with angular momentum L= 0

SPLIT: Basis orbitals for state 2s

SPLIT: PAO cut-off radius determined from an
SPLIT: energy shift=  0.007350 Ry

   izeta = 1
                 lambda =    1.000000
                     rc =    5.422032
                 energy =   -0.686029
                kinetic =    0.576707
    potential(screened) =   -1.262736
       potential(ionic) =   -3.271094

   izeta = 2
                 rmatch =    4.222573
              splitnorm =    0.150000
                 energy =   -0.602132
                kinetic =    0.858975
    potential(screened) =   -1.461107
       potential(ionic) =   -3.582536

SPLIT: Orbitals with angular momentum L= 1

SPLIT: Basis orbitals for state 2p

SPLIT: PAO cut-off radius determined from an
SPLIT: energy shift=  0.007350 Ry

   izeta = 1
                 lambda =    1.000000
                     rc =    6.790259
                 energy =   -0.258578
                kinetic =    1.481412
    potential(screened) =   -1.739989
       potential(ionic) =   -3.657461

   izeta = 2
                 rmatch =    4.608740
              splitnorm =    0.150000
                 energy =   -0.173757
                kinetic =    2.186690
    potential(screened) =   -2.360447
       potential(ionic) =   -4.464260

POLgen: Perturbative polarization orbital with L=  2

POLgen: Polarization orbital for state 2p

   izeta = 1
                     rc =    6.790259
                 energy =    0.684082
                kinetic =    1.471481
    potential(screened) =   -0.787399
       potential(ionic) =   -2.406985
atom: Total number of Sankey-type orbitals: 13

atm_pop: Valence configuration (for local Pseudopot. screening):
 2s( 2.00)                                                            
 2p( 1.00)                                                            
Vna: chval, zval:    3.00000   3.00000

Vna:  Cut-off radius for the neutral-atom potential:   6.790259
comcore: Pseudo-core radius Rcore=  2.122997

atom: _________________________________________________________________________

<basis_specs>
===============================================================================
C                    Z=   6    Mass=  12.010        Charge= 0.17977+309
Lmxo=1 Lmxkb= 3    BasisType=split      Semic=F
L=0  Nsemic=0  Cnfigmx=2
          n=1  nzeta=2  polorb=0
            splnorm:   0.15000    
               vcte:    0.0000    
               rinn:    0.0000    
                rcs:    0.0000      0.0000    
            lambdas:    1.0000      1.0000    
L=1  Nsemic=0  Cnfigmx=2
          n=1  nzeta=2  polorb=1
            splnorm:   0.15000    
               vcte:    0.0000    
               rinn:    0.0000    
                rcs:    0.0000      0.0000    
            lambdas:    1.0000      1.0000    
-------------------------------------------------------------------------------
L=0  Nkbl=1  erefs: 0.17977+309
L=1  Nkbl=1  erefs: 0.17977+309
L=2  Nkbl=1  erefs: 0.17977+309
L=3  Nkbl=1  erefs: 0.17977+309
===============================================================================
</basis_specs>

atom: Called for C                     (Z =   6)

read_vps: Pseudopotential generation method:
read_vps: ATM3      Troullier-Martins                       
Total valence charge:    4.00000

read_vps: Pseudopotential includes a core correction:
read_vps: Pseudo-core for xc-correction

xc_check: Exchange-correlation functional:
xc_check: GGA Perdew, Burke & Ernzerhof 1996
V l=0 = -2*Zval/r beyond r=  1.5227
V l=1 = -2*Zval/r beyond r=  1.5227
V l=2 = -2*Zval/r beyond r=  1.5227
V l=3 = -2*Zval/r beyond r=  1.5038
All V_l potentials equal beyond r=  1.5227
This should be close to max(r_c) in ps generation
All pots = -2*Zval/r beyond r=  1.5227

VLOCAL1: 99.0% of the norm of Vloc inside     18.722 Ry
VLOCAL1: 99.9% of the norm of Vloc inside     42.668 Ry
atom: Maximum radius for 4*pi*r*r*local-pseudopot. charge    1.83678
atom: Maximum radius for r*vlocal+2*Zval:    1.58088
GHOST: No ghost state for L =  0
GHOST: No ghost state for L =  1
GHOST: No ghost state for L =  2
GHOST: No ghost state for L =  3

KBgen: Kleinman-Bylander projectors: 
   l= 0   rc=  1.704034   el= -1.009801   Ekb=  5.335044   kbcos=  0.316824
   l= 1   rc=  1.704034   el= -0.388707   Ekb= -3.785862   kbcos= -0.366464
   l= 2   rc=  1.791422   el=  0.001971   Ekb= -0.970471   kbcos= -0.009212
   l= 3   rc=  1.859892   el=  0.003065   Ekb= -0.399525   kbcos= -0.001223

KBgen: Total number of  Kleinman-Bylander projectors:   16
atom: -------------------------------------------------------------------------

atom: SANKEY-TYPE ORBITALS:
atom: Selected multiple-zeta basis: split     

SPLIT: Orbitals with angular momentum L= 0

SPLIT: Basis orbitals for state 2s

SPLIT: PAO cut-off radius determined from an
SPLIT: energy shift=  0.007350 Ry

   izeta = 1
                 lambda =    1.000000
                     rc =    4.632753
                 energy =   -1.002270
                kinetic =    0.855760
    potential(screened) =   -1.858031
       potential(ionic) =   -5.417575

   izeta = 2
                 rmatch =    3.431921
              splitnorm =    0.150000
                 energy =   -0.867111
                kinetic =    1.300804
    potential(screened) =   -2.167915
       potential(ionic) =   -5.962684

SPLIT: Orbitals with angular momentum L= 1

SPLIT: Basis orbitals for state 2p

SPLIT: PAO cut-off radius determined from an
SPLIT: energy shift=  0.007350 Ry

   izeta = 1
                 lambda =    1.000000
                     rc =    5.658549
                 energy =   -0.381140
                kinetic =    2.399701
    potential(screened) =   -2.780841
       potential(ionic) =   -6.206085

   izeta = 2
                 rmatch =    3.653288
              splitnorm =    0.150000
                 energy =   -0.249149
                kinetic =    3.542762
    potential(screened) =   -3.791911
       potential(ionic) =   -7.581078

POLgen: Perturbative polarization orbital with L=  2

POLgen: Polarization orbital for state 2p

   izeta = 1
                     rc =    5.658549
                 energy =    1.109913
                kinetic =    2.304789
    potential(screened) =   -1.194876
       potential(ionic) =   -4.013592
atom: Total number of Sankey-type orbitals: 13

atm_pop: Valence configuration (for local Pseudopot. screening):
 2s( 2.00)                                                            
 2p( 2.00)                                                            
Vna: chval, zval:    4.00000   4.00000

Vna:  Cut-off radius for the neutral-atom potential:   5.658549
comcore: Pseudo-core radius Rcore=  1.791422

atom: _________________________________________________________________________

prinput: Basis input ----------------------------------------------------------

PAO.BasisType split     

%block ChemicalSpeciesLabel
    1    5 B                       # Species index, atomic number, species label
    2    6 C                       # Species index, atomic number, species label
%endblock ChemicalSpeciesLabel

%block PAO.Basis                 # Define Basis set
B                     2                    # Species label, number of l-shells
 n=2   0   2                         # n, l, Nzeta 
   5.422      4.223   
   1.000      1.000   
 n=2   1   2 P   1                   # n, l, Nzeta, Polarization, NzetaPol
   6.790      4.609   
   1.000      1.000   
C                     2                    # Species label, number of l-shells
 n=2   0   2                         # n, l, Nzeta 
   4.633      3.432   
   1.000      1.000   
 n=2   1   2 P   1                   # n, l, Nzeta, Polarization, NzetaPol
   5.659      3.653   
   1.000      1.000   
%endblock PAO.Basis

prinput: ----------------------------------------------------------------------

coor:   Atomic-coordinates input format  =     Fractional

siesta: Atomic coordinates (Bohr) and species
siesta:      9.28770  26.79272   0.00000  1        1
siesta:      9.28770  21.41544   0.00000  1        2
siesta:     11.61608  25.44831   0.00000  1        3
siesta:     -0.02582  13.34970   0.00000  1        4
siesta:      2.30256  14.69411   0.00000  1        5
siesta:      2.30256  17.38257   0.00000  1        6
siesta:      6.95932  22.75985   0.00000  1        7
siesta:      6.95932  25.44831   0.00000  1        8
siesta:     -2.35420  14.69411   0.00000  1        9
siesta:     -2.35420  17.38257   0.00000  1       10
siesta:     -0.02582  18.72698   0.00000  1       11
siesta:      2.30256  25.44831   0.00000  1       12
siesta:     -4.68258  21.41544   0.00000  1       13
siesta:     -2.35420  22.75985   0.00000  1       14
siesta:     -2.35420  25.44831   0.00000  1       15
siesta:     -7.01096  22.75985   0.00000  1       16
siesta:     -7.01096  25.44831   0.00000  1       17
siesta:      4.63094  26.79272   0.00000  1       18
siesta:      4.63094  29.48119   0.00000  1       19
siesta:     -0.02582  26.79272   0.00000  1       20
siesta:     -0.02582  29.48119   0.00000  1       21
siesta:     -4.68258  26.79272   0.00000  1       22
siesta:      2.30256  30.82560   0.00000  1       23
siesta:     -0.02582   2.59549   0.00000  2       24
siesta:     -0.02582   5.28395   0.00000  2       25
siesta:     -2.35420  38.89134   0.00000  2       26
siesta:     -2.35420  41.57980   0.00000  2       27
siesta:      2.30256  38.89134   0.00000  2       28
siesta:      2.30256  41.57980   0.00000  2       29
siesta:      4.63094  34.85847   0.00000  2       30
siesta:      4.63094  37.54693   0.00000  2       31
siesta:      6.95932  30.82560   0.00000  2       32
siesta:      6.95932  33.51406   0.00000  2       33
siesta:      9.28770  29.48119   0.00000  2       34
siesta:     -4.68258  34.85847   0.00000  2       35
siesta:     -4.68258  37.54693   0.00000  2       36
siesta:      2.30256   6.62836   0.00000  2       37
siesta:      2.30256   9.31683   0.00000  2       38
siesta:      4.63094  10.66124   0.00000  2       39
siesta:      4.63094  13.34970   0.00000  2       40
siesta:      6.95932  14.69411   0.00000  2       41
siesta:      6.95932  17.38257   0.00000  2       42
siesta:      9.28770  18.72698   0.00000  2       43
siesta:     11.61608  22.75985   0.00000  2       44
siesta:     -2.35420   6.62836   0.00000  2       45
siesta:     -2.35420   9.31683   0.00000  2       46
siesta:     -0.02582  10.66124   0.00000  2       47
siesta:      4.63094  18.72698   0.00000  2       48
siesta:      4.63094  21.41544   0.00000  2       49
siesta:     -4.68258  10.66124   0.00000  2       50
siesta:     -4.68258  13.34970   0.00000  2       51
siesta:     -0.02582  21.41544   0.00000  2       52
siesta:      2.30256  22.75985   0.00000  2       53
siesta:     -7.01096  14.69411   0.00000  2       54
siesta:     -7.01096  17.38257   0.00000  2       55
siesta:     -4.68258  18.72698   0.00000  2       56
siesta:     -9.33934  18.72698   0.00000  2       57
siesta:     -9.33934  21.41544   0.00000  2       58
siesta:    -11.66772  22.75985   0.00000  2       59
siesta:    -11.66772  25.44831   0.00000  2       60
siesta:     -9.33934  26.79272   0.00000  2       61
siesta:     -9.33934  29.48119   0.00000  2       62
siesta:     -4.68258  29.48119   0.00000  2       63
siesta:      2.30256  33.51406   0.00000  2       64
siesta:     -2.35420  30.82560   0.00000  2       65
siesta:     -2.35420  33.51406   0.00000  2       66
siesta:     -7.01096  30.82560   0.00000  2       67
siesta:     -7.01096  33.51406   0.00000  2       68
siesta:     -0.02582  34.85847   0.00000  2       69
siesta:     -0.02582  37.54693   0.00000  2       70
siesta:     -0.02582  42.92421   0.00000  2       71
siesta:     -0.02582  45.61267   0.00000  2       72

siesta: System type = slab      

initatomlists: Number of atoms, orbitals, and projectors:     72   936  1152

siesta: ******************** Simulation parameters ****************************
siesta:
siesta: The following are some of the parameters of the simulation.
siesta: A complete list of the parameters used, including default values,
siesta: can be found in file out.fdf
siesta:
redata: Non-Collinear-spin run           =     F
redata: SpinPolarized (Up/Down) run      =     F
redata: Number of spin components        =     1
redata: Long output                      =     F
redata: Number of Atomic Species         =        2
redata: Charge density info will appear in .RHO file
redata: Write Mulliken Pop.              =     NO
redata: Mesh Cutoff                      =   200.0000  Ry
redata: Net charge of the system         =     0.0000 |e|
redata: Max. number of SCF Iter          =      500
redata: SCF convergence failure will abort job
redata: Performing Pulay mixing using    =    10 iterations
redata: Mix DM in first SCF step ?       =     F
redata: Write Pulay info on disk?        =     F
redata: Discard 1st Pulay DM after  kick =     F
redata: New DM Mixing Weight             =     0.0500
redata: New DM Occupancy tolerance       = 0.000000000001
redata: No kicks to SCF
redata: DM Mixing Weight for Kicks       =     0.5000
redata: DM Tolerance for SCF             =     0.000100
redata: Require Energy convergence for SCF =     F
redata: DM Energy tolerance for SCF      =     0.000100 eV
redata: Require Harris convergence for SCF =     F
redata: DM Harris energy tolerance for SCF =     0.000100 eV
redata: Using Saved Data (generic)   =     F
redata: Use continuation files for DM    =     T
redata: Neglect nonoverlap interactions  =     F
redata: Method of Calculation            =     Diagonalization
redata: Divide and Conquer               =     T
redata: Electronic Temperature           =     0.0019  Ry
redata: Fix the spin of the system       =     F
redata: Dynamics option                  =     Verlet MD run
redata: Initial MD time step             =        1
redata:   Final MD time step             =        1
redata: Length of MD time step           =     1.0000  fs
redata: Initial Temperature of MD run    =     0.0000  K
redata: Perform a MD quench              =     F
redata: ***********************************************************************
Total number of electrons:   265.000000
Total ionic charge:   265.000000

* ProcessorY, Blocksize:    2  24

k-point displ. along   1 input, could be:     0.50    0.00
k-point displ. along   2 input, could be:     0.50    0.00
 Kpoints in:          231 . Kpoints trimmed:          231

siesta: k-grid: Number of k-points =   231
siesta: k-grid: Cutoff (effective) =     5.000 Ang
siesta: k-grid: Supercell and displacements
siesta: k-grid:   21   0   0      0.500
siesta: k-grid:    0  21   0      0.500
siesta: k-grid:    0   0   1      0.000
Naive supercell factors:     2    2    2

superc: Internal auxiliary supercell:     2 x     2 x     2  =       8
superc: Number of atoms, orbitals, and projectors:    576   7488   9216

* Maximum dynamic memory allocated =     4 MB

siesta:                 ==============================
                            Begin MD step =      1
                        ==============================

superc: Internal auxiliary supercell:     2 x     2 x     2  =       8
superc: Number of atoms, orbitals, and projectors:    576   7488   9216

outcell: Unit cell vectors (Ang):
       12.804619    7.392750    0.000000
        0.000000   14.785500    0.000000
        0.000000    0.000000   10.000000

outcell: Cell vector modules (Ang)   :   14.785500   14.785500   10.000000
outcell: Cell angles (23,13,12) (deg):     90.0000     90.0000     60.0000
outcell: Cell volume (Ang**3)        :   1893.2269
New_DM. Step:     1
Initializing Density Matrix...

InitMesh: MESH =   120 x   120 x    90 =     1296000
InitMesh: Mesh cutoff (required, used) =   200.000   223.865 Ry

* Maximum dynamic memory allocated =   221 MB

stepf: Fermi-Dirac step function

siesta: Program's energy decomposition (eV):
siesta: Ebs     =     -5481.841894
siesta: Eions   =     15457.706713
siesta: Ena     =      4165.743714
siesta: Ekin    =      5165.204314
siesta: Enl     =       832.468242
siesta: DEna    =        -0.000007
siesta: DUscf   =         0.000000
siesta: DUext   =         0.000000
siesta: Exc     =     -4207.605720
siesta: eta*DQ  =         0.000000
siesta: Emadel  =         0.000000
siesta: Emeta   =         0.000000
siesta: Emolmec =         0.000000
siesta: Ekinion =         0.000000
siesta: Eharris =     -9248.697377
siesta: Etot    =     -9501.896171
siesta: FreeEng =     -9501.896171

siesta: iscf   Eharris(eV)      E_KS(eV)   FreeEng(eV)   dDmax  Ef(eV)
siesta:    1    -9248.6974    -9501.8962    -9501.8962  6.5457 -8.4308
timer: Routine,Calls,Time,% = IterSCF        1    4463.857  99.72
elaps: Routine,Calls,Wall,% = IterSCF        1     558.739  99.72
siesta:    2   -13491.4245    -8525.1542    -8525.1873 20.7300 -2.2120
siesta:    3    -9175.3045    -9387.6811    -9387.6994  3.8132 -7.2951
siesta:    4    -9152.6078    -9253.6533    -9253.6781  1.6498 -6.0389
siesta:    5    -9123.7690    -9151.0872    -9151.1388  1.1642 -5.4730
siesta:    6    -9104.7068    -9122.5252    -9122.5631  1.0466 -5.3827
siesta:    7    -9095.4612    -9103.8610    -9103.9155  0.7479 -5.4405
siesta:    8    -9093.7679    -9099.1466    -9099.1980  0.7334 -5.4856
siesta:    9    -9092.2026    -9091.0709    -9091.1179  0.6083 -5.4257
siesta:   10    -9092.1978    -9077.7774    -9077.8321  0.4194 -5.3257
siesta:   11    -9091.5117    -9070.5806    -9070.6369  0.2784 -5.3509
siesta:   12    -9091.2884    -9064.2032    -9064.2551  0.1946 -5.3122
siesta:   13    -9091.1946    -9062.6730    -9062.7356  0.1233 -5.2812
siesta:   14    -9090.7585    -9066.9789    -9067.0393  0.1267 -5.3303
siesta:   15    -9090.4110    -9073.1626    -9073.2231  0.1039 -5.3540
siesta:   16    -9090.3593    -9078.9685    -9079.0256  0.0701 -5.3879
siesta:   17    -9090.2673    -9082.2644    -9082.3201  0.0370 -5.3987
siesta:   18    -9090.2347    -9084.6267    -9084.6848  0.0530 -5.4077
siesta:   19    -9090.2230    -9086.7210    -9086.7821  0.0222 -5.4103
siesta:   20    -9090.2172    -9087.8681    -9087.9304  0.0246 -5.4044
siesta:   21    -9090.2178    -9088.9414    -9089.0030  0.0182 -5.3986
siesta:   22    -9090.2161    -9089.6936    -9089.7548  0.0144 -5.3962
siesta:   23    -9090.2148    -9090.4366    -9090.4978  0.0067 -5.3923
siesta:   24    -9090.2146    -9090.5453    -9090.6066  0.0053 -5.3912
siesta:   25    -9090.2145    -9090.6181    -9090.6792  0.0029 -5.3910
siesta:   26    -9090.2144    -9090.6175    -9090.6784  0.0019 -5.3902
siesta:   27    -9090.2142    -9090.5701    -9090.6310  0.0018 -5.3905
siesta:   28    -9090.2142    -9090.4835    -9090.5445  0.0014 -5.3902
siesta:   29    -9090.2141    -9090.3622    -9090.4233  0.0010 -5.3901
siesta:   30    -9090.2141    -9090.2811    -9090.3422  0.0005 -5.3899
siesta:   31    -9090.2141    -9090.2513    -9090.3124  0.0005 -5.3900
siesta:   32    -9090.2141    -9090.2270    -9090.2881  0.0003 -5.3901
siesta:   33    -9090.2141    -9090.2275    -9090.2886  0.0002 -5.3901
siesta:   34    -9090.2141    -9090.2271    -9090.2882  0.0002 -5.3902
siesta:   35    -9090.2141    -9090.2274    -9090.2885  0.0001 -5.3902
siesta:   36    -9090.2141    -9090.2268    -9090.2879  0.0001 -5.3902

siesta: E_KS(eV) =            -9090.2240

siesta: E_KS - E_eggbox =     -9090.2240

siesta: Atomic forces (eV/Ang):
----------------------------------------
   Tot   -0.180574   -0.088730    0.000000
----------------------------------------
   Max  557.530825
   Res  144.154278    sqrt( Sum f_i^2 / 3N )
----------------------------------------
   Max  557.530825    constrained

Stress-tensor-Voigt (kbar):     -797.12    -2677.97       -0.75       -3.45        0.00        0.00
(Free)E + p*V (eV/cell)    -7721.2134
Target enthalpy (eV/cell)    -9090.2851

siesta: Stress tensor (static) (eV/Ang**3):
        -0.497521   -0.002154    0.000000
        -0.002154   -1.671440    0.000000
         0.000000    0.000000   -0.000465

siesta: Pressure (static):       1158.61360696  kBar

siesta: Stress tensor (total) (eV/Ang**3):
        -0.497521   -0.002154    0.000000
        -0.002154   -1.671440    0.000000
         0.000000    0.000000   -0.000465

siesta: Pressure (total):       1158.61360696  kBar

siesta: Temp_ion =       0.000 K

* Maximum dynamic memory allocated =   237 MB
Computing bands...

siesta: Program's energy decomposition (eV):
siesta: Ebs     =     -4094.007585
siesta: Eions   =     15457.706713
siesta: Ena     =      4165.743714
siesta: Ekin    =      8018.305055
siesta: Enl     =      -756.609095
siesta: DEna    =      -787.728768
siesta: DUscf   =       105.125733
siesta: DUext   =         0.000000
siesta: Exc     =     -4377.353972
siesta: eta*DQ  =         0.000000
siesta: Emadel  =         0.000000
siesta: Emeta   =         0.000000
siesta: Emolmec =         0.000000
siesta: Ekinion =         0.000000
siesta: Eharris =     -9090.214103
siesta: Etot    =     -9090.224047
siesta: FreeEng =     -9090.285145

siesta: Final energy (eV):
siesta:  Band Struct. =   -4094.007585
siesta:       Kinetic =    8018.305055
siesta:       Hartree =   26323.754291
siesta:    Ext. field =       0.000000
siesta:   Exch.-corr. =   -4377.353972
siesta:  Ion-electron =  -60376.557240
siesta:       Ion-ion =   21321.627820
siesta:       Ekinion =       0.000000
siesta:         Total =   -9090.224047

siesta: Atomic forces (eV/Ang):
siesta:      1    3.655326    6.957068    0.000000
siesta:      2    9.366288   -3.269520    0.000000
siesta:      3    7.014424   -4.123570    0.000000
siesta:      4   -0.273198 -103.279288    0.000000
siesta:      5   16.925795  398.932775    0.000000
siesta:      6   20.281871    0.670184    0.000000
siesta:      7   -5.921445   -2.874977    0.000000
siesta:      8   -0.827147    0.408771    0.000000
siesta:      9  -16.473429  398.306168    0.000000
siesta:     10  -20.188410    0.408605    0.000000
siesta:     11    1.128076  414.427994    0.000000
siesta:     12   -0.327485   -5.623538    0.000000
siesta:     13   -0.346664   -3.288849    0.000000
siesta:     14    4.877236   -3.133796    0.000000
siesta:     15    0.076702   -1.121297    0.000000
siesta:     16   -3.157108   -2.520047    0.000000
siesta:     17   -2.591194    2.006584    0.000000
siesta:     18   -1.659041    0.864270    0.000000
siesta:     19    2.717929    3.378294    0.000000
siesta:     20    0.084579    3.191593    0.000000
siesta:     21   -0.597353 -408.770435    0.000000
siesta:     22    0.900414    4.550648    0.000000
siesta:     23   16.393505    2.575836    0.000000
siesta:     24   -2.558720  404.980196    0.000000
siesta:     25    2.831765 -126.864555    0.000000
siesta:     26    2.207673  125.568420    0.000000
siesta:     27  -16.158733 -405.874520    0.000000
siesta:     28   -2.204263  125.306878    0.000000
siesta:     29   16.139175 -405.890178    0.000000
siesta:     30   26.727188    4.872331    0.000000
siesta:     31   34.958876 -552.431834    0.000000
siesta:     32    7.204887    3.015144    0.000000
siesta:     33   -3.125851    1.717454    0.000000
siesta:     34   -3.216151    2.077435    0.000000
siesta:     35  -27.112251    5.370058    0.000000
siesta:     36  -34.846634 -551.987204    0.000000
siesta:     37   18.393578  553.491320    0.000000
siesta:     38   -1.214947 -125.350418    0.000000
siesta:     39   28.633869  550.980775    0.000000
siesta:     40   24.691564    0.285175    0.000000
siesta:     41   -2.211649   -2.059318    0.000000
siesta:     42    3.634136   -0.953105    0.000000
siesta:     43   -3.474129   -3.136945    0.000000
siesta:     44    2.458619    1.847295    0.000000
siesta:     45  -16.966417  549.514305    0.000000
siesta:     46    0.934406 -125.506431    0.000000
siesta:     47   -0.184908  539.927974    0.000000
siesta:     48   -0.490981    1.890628    0.000000
siesta:     49   -1.999282   -1.415709    0.000000
siesta:     50  -28.854780  550.952720    0.000000
siesta:     51  -25.011170    0.212295    0.000000
siesta:     52    3.166872    1.017783    0.000000
siesta:     53   -0.675116   -4.831150    0.000000
siesta:     54    1.927419   -2.098979    0.000000
siesta:     55   -3.590375   -0.563701    0.000000
siesta:     56    0.037323   -1.443632    0.000000
siesta:     57    2.083394   -0.267471    0.000000
siesta:     58   -6.800461   -3.682239    0.000000
siesta:     59    0.344372    6.021855    0.000000
siesta:     60    0.150333   -5.957396    0.000000
siesta:     61   -6.532808    3.514795    0.000000
siesta:     62    1.589115   -0.076614    0.000000
siesta:     63    1.904069    2.952934    0.000000
siesta:     64   22.555654 -555.906876    0.000000
siesta:     65  -23.213392    2.767295    0.000000
siesta:     66  -23.687936 -557.530825    0.000000
siesta:     67   -2.383860    1.012482    0.000000
siesta:     68    2.617454    1.384625    0.000000
siesta:     69    0.623326  125.917319    0.000000
siesta:     70    0.311997 -550.853611    0.000000
siesta:     71   -0.286111  125.387437    0.000000
siesta:     72   -0.566384 -406.066418    0.000000
siesta: ----------------------------------------
siesta:    Tot   -0.180574   -0.088730    0.000000

siesta: Stress tensor (static) (eV/Ang**3):
siesta:    -0.497521   -0.002154    0.000000
siesta:    -0.002154   -1.671440    0.000000
siesta:     0.000000    0.000000   -0.000465

siesta: Cell volume =       1893.226884 Ang**3

siesta: Pressure (static):
siesta:                Solid            Molecule  Units
siesta:           0.00787594          0.11014590  Ry/Bohr**3
siesta:           0.72314192         10.11322199  eV/Ang**3
siesta:        1158.61360696      16203.34310432  kBar
(Free)E+ p_basis*V_orbitals  =       -9052.280600
(Free)Eharris+ p_basis*V_orbitals  =       -9052.267941

siesta: Electric dipole (a.u.)  =    0.000000    0.000000    0.000000
siesta: Electric dipole (Debye) =    0.000000    0.000000    0.000000

* Maximum dynamic memory allocated : Node    0 =   236 MB
* Maximum dynamic memory allocated : Node    1 =    82 MB
* Maximum dynamic memory allocated : Node    2 =    86 MB
* Maximum dynamic memory allocated : Node    3 =   226 MB
* Maximum dynamic memory allocated : Node    4 =   237 MB
* Maximum dynamic memory allocated : Node    5 =    86 MB
* Maximum dynamic memory allocated : Node    6 =    89 MB
* Maximum dynamic memory allocated : Node    7 =   217 MB

* Maximum memory occured during matrixMtoO                    

timer: CPU execution times:
timer:  Routine       Calls   Time/call    Tot.time        %
timer:  siesta            1  157778.201  157778.201   100.00
timer:  Setup             1       3.764       3.764     0.00
timer:  bands             3     269.242     807.727     0.51
timer:  writewave         1       0.040       0.040     0.00
timer:  KSV_init          1       0.008       0.008     0.00
timer:  IterMD            1  156961.037  156961.037    99.48
timer:  hsparse           1       0.396       0.396     0.00
timer:  overlap           1       7.792       7.792     0.00
timer:  IterSCF          36    4353.735  156734.456    99.34
timer:  kinefsm           2       4.044       8.088     0.01
timer:  nlefsm            2      21.438      42.877     0.03
timer:  DHSCF            37     123.529    4570.567     2.90
timer:  DHSCF1            1       0.998       0.998     0.00
timer:  DHSCF2            1      44.339      44.339     0.03
timer:  REORD           298       0.010       2.952     0.00
timer:  POISON           38       2.247      85.371     0.05
timer:  DHSCF3           37     121.035    4478.295     2.84
timer:  rhoofd           37      27.056    1001.078     0.63
timer:  cellXC           37       3.500     129.502     0.08
timer:  vmat             37      58.862    2177.893     1.38
timer:  MolMec            2       0.000       0.000     0.00
timer:  diagon           36    4228.563  152228.265    96.48
timer:  c-eigval       8437       6.691   56450.543    35.78
timer:  c-buildHS      8437       0.123    1038.914     0.66
timer:  cdiag         16753       6.899  115578.264    73.25
timer:  cdiag1        16753       0.428    7164.604     4.54
timer:  cdiag2        16753       1.915   32080.187    20.33
timer:  cdiag3        16753       3.946   66106.220    41.90
timer:  cdiag4        16753       0.223    3733.543     2.37
timer:  c-eigvec       8316       7.294   60659.000    38.45
timer:  c-buildD       8316       4.315   35879.917    22.74
timer:  DHSCF4            1      44.957      44.957     0.03
timer:  dfscf             1      42.234      42.234     0.03
timer:  overfsm           1       0.484       0.484     0.00
timer:  optical           1       4.979       4.979     0.00
  

elaps: ELAPSED times:
elaps:  Routine       Calls   Time/call    Tot.time        %
elaps:  siesta            1   19744.981   19744.981   100.00
elaps:  Setup             1       0.486       0.486     0.00
elaps:  bands             3      33.707     101.122     0.51
elaps:  writewave         1       0.006       0.006     0.00
elaps:  KSV_init          1       0.001       0.001     0.00
elaps:  IterMD            1   19642.715   19642.715    99.48
elaps:  hsparse           1       0.050       0.050     0.00
elaps:  overlap           1       0.976       0.976     0.00
elaps:  IterSCF          36     544.847   19614.507    99.34
elaps:  kinefsm           2       0.503       1.006     0.01
elaps:  nlefsm            2       2.741       5.482     0.03
elaps:  DHSCF            37      15.588     576.756     2.92
elaps:  DHSCF1            1       0.130       0.130     0.00
elaps:  DHSCF2            1       5.543       5.543     0.03
elaps:  REORD           298       0.001       0.411     0.00
elaps:  POISON           38       0.281      10.661     0.05
elaps:  DHSCF3           37      15.142     560.241     2.84
elaps:  rhoofd           37       6.797     251.499     1.27
elaps:  cellXC           37       0.437      16.180     0.08
elaps:  vmat             37       7.363     272.442     1.38
elaps:  MolMec            2       0.000       0.000     0.00
elaps:  diagon           36     529.180   19050.480    96.48
elaps:  c-eigval       8437       0.837    7063.105    35.77
elaps:  c-buildHS      8437       0.017     139.530     0.71
elaps:  cdiag         16753       0.860   14406.356    72.96
elaps:  cdiag1        16753       0.053     893.212     4.52
elaps:  cdiag2        16753       0.240    4014.156    20.33
elaps:  cdiag3        16753       0.494    8282.053    41.95
elaps:  cdiag4        16753       0.028     468.695     2.37
elaps:  c-eigvec       8316       0.910    7564.842    38.31
elaps:  c-buildD       8316       0.543    4517.281    22.88
elaps:  DHSCF4            1      10.570      10.570     0.05
elaps:  dfscf             1      10.045      10.045     0.05
elaps:  overfsm           1       0.058       0.058     0.00
elaps:  optical           1       0.001       0.001     0.00
  
>> End of run:  24-APR-2016   8:55:26
