Siesta Version:                                        siesta-3.2-pl-3
Architecture  : x86_64-unknown-linux-gnu--unknown
Compiler flags: mpiifort -g -O2 -fPIC -xSSE4.1 -fp-model source -shared-intel 
PARALLEL version

* Running on    8 nodes in parallel
>> Start of run:  21-APR-2016   2:17:27

                           ***********************       
                           *  WELCOME TO SIESTA  *       
                           ***********************       

reinit: Reading from standard input
************************** Dump of input data file ****************************
#(1) General system descriptors
SystemName            GRP_doping    # Descriptive name of the system
SystemLabel           GRP_doping    # Short name for naming files
%include STRUCT.fdf
%include KPT.fdf
%include BASIS.fdf
#%include TS.fdf # for transiesta calculation
#(4) DFT, Grid, SCF
XC.functional         GGA           # LDA or GGA (default = LDA)
XC.authors            PBE           # CA (Ceperley-Aldr) = PZ
                                    #    (Perdew-Zunger) - LDA - Default
                                    # PW92 (Perdew-Wang-92) - LDA
                                    # PBE (Perdew-Burke-Ernzerhof) - GGA
MeshCutoff            200.000000    Ry      # Default: 50.0 Ry ~ 0.444 Bohr
                                    #         100.0 Ry ~ 0.314 Bohr
MaxSCFIterations      500           # Default: 50
DM.MixingWeight       0.05          # Default: 0.25
DM.NumberPulay        10            # Default: 0
DM.PulayOnFile        F             # SystemLabel.P1, SystemLabel.P2
DM.Tolerance          1.d-4         # Default: 1.d-4
DM.UseSaveDM          .true.        # because of the bug
SCFMustConverge       .true.
NeglNonOverlapInt     F             # Default: F
#(5) Eigenvalue problem: order-N or diagonalization
SolutionMethod        Diagon        # or Transiesta
ElectronicTemperature 300.0 K       # Default: 300.0 K
#(6) Molecular dynamics and relaxations
#MD.TypeOfRun          CG            # Type of dynamics:
#MD.VariableCell       F
#MD.NumCGsteps         0           # 0 for single-point / 100 for gopt
#MD.MaxCGDispl         0.2 Bohr      # Default: 0.2 Bohr
#MD.MaxForceTol        0.02 eV/Ang   # Default: 0.04 eV/Ang
#MD.MaxStressTol       1.0 GPa       # Default: 1.0 GPa
# Geometry Constraints
#%block GeometryConstraints
#	position from 1 to 44
#%endblock GeometryConstraints
BandLinesScale   pi/a
%block BandLines
 1   0.00000000  0.00000000  0.00000000
50   0.00000000  0.07809418  0.00000000
50   0.04509075  0.07809242  0.00000000
20   0.00000000  0.00000000  0.00000000
%endblock BandLines
************************** End of input data file *****************************

reinit: -----------------------------------------------------------------------
reinit: System Name: GRP_doping
reinit: -----------------------------------------------------------------------
reinit: System Label: GRP_doping                                                  
reinit: -----------------------------------------------------------------------

initatom: Reading input for the pseudopotentials and atomic orbitals ----------
 Species number:            1  Label: B Atomic number:           5
 Species number:            2  Label: C Atomic number:           6
Ground state valence configuration:   2s02  2p01
Reading pseudopotential information in formatted form from B.psf

Valence configuration for pseudopotential generation:
2s( 2.00) rc: 1.74
2p( 1.00) rc: 1.74
3d( 0.00) rc: 1.74
4f( 0.00) rc: 1.74
Ground state valence configuration:   2s02  2p02
Reading pseudopotential information in formatted form from C.psf

Valence configuration for pseudopotential generation:
2s( 2.00) rc: 1.54
2p( 2.00) rc: 1.54
3d( 0.00) rc: 1.54
4f( 0.00) rc: 1.54
For B, standard SIESTA heuristics set lmxkb to 3
 (one more than the basis l, including polarization orbitals).
Use PS.lmax or PS.KBprojectors blocks to override.
For C, standard SIESTA heuristics set lmxkb to 3
 (one more than the basis l, including polarization orbitals).
Use PS.lmax or PS.KBprojectors blocks to override.

<basis_specs>
===============================================================================
B                    Z=   5    Mass=  10.810        Charge= 0.17977+309
Lmxo=1 Lmxkb= 3    BasisType=split      Semic=F
L=0  Nsemic=0  Cnfigmx=2
          n=1  nzeta=2  polorb=0
            splnorm:   0.15000    
               vcte:    0.0000    
               rinn:    0.0000    
                rcs:    0.0000      0.0000    
            lambdas:    1.0000      1.0000    
L=1  Nsemic=0  Cnfigmx=2
          n=1  nzeta=2  polorb=1
            splnorm:   0.15000    
               vcte:    0.0000    
               rinn:    0.0000    
                rcs:    0.0000      0.0000    
            lambdas:    1.0000      1.0000    
-------------------------------------------------------------------------------
L=0  Nkbl=1  erefs: 0.17977+309
L=1  Nkbl=1  erefs: 0.17977+309
L=2  Nkbl=1  erefs: 0.17977+309
L=3  Nkbl=1  erefs: 0.17977+309
===============================================================================
</basis_specs>

atom: Called for B                     (Z =   5)

read_vps: Pseudopotential generation method:
read_vps: ATM3      Troullier-Martins                       
Total valence charge:    3.00000

read_vps: Pseudopotential includes a core correction:
read_vps: Pseudo-core for xc-correction

xc_check: Exchange-correlation functional:
xc_check: GGA Perdew, Burke & Ernzerhof 1996
V l=0 = -2*Zval/r beyond r=  1.7165
V l=1 = -2*Zval/r beyond r=  1.7165
V l=2 = -2*Zval/r beyond r=  1.7165
V l=3 = -2*Zval/r beyond r=  1.6951
All V_l potentials equal beyond r=  1.7165
This should be close to max(r_c) in ps generation
All pots = -2*Zval/r beyond r=  1.7165

VLOCAL1: 99.0% of the norm of Vloc inside     14.733 Ry
VLOCAL1: 99.9% of the norm of Vloc inside     33.577 Ry
atom: Maximum radius for 4*pi*r*r*local-pseudopot. charge    2.04484
atom: Maximum radius for r*vlocal+2*Zval:    1.75994
GHOST: No ghost state for L =  0
GHOST: No ghost state for L =  1
GHOST: No ghost state for L =  2
GHOST: No ghost state for L =  3

KBgen: Kleinman-Bylander projectors: 
   l= 0   rc=  1.897051   el= -0.693730   Ekb=  4.595746   kbcos=  0.286105
   l= 1   rc=  1.920920   el= -0.265236   Ekb= -2.350715   kbcos= -0.315747
   l= 2   rc=  2.044840   el=  0.002055   Ekb= -0.690767   kbcos= -0.013822
   l= 3   rc=  2.149707   el=  0.003188   Ekb= -0.315358   kbcos= -0.002055

KBgen: Total number of  Kleinman-Bylander projectors:   16
atom: -------------------------------------------------------------------------

atom: SANKEY-TYPE ORBITALS:
atom: Selected multiple-zeta basis: split     

SPLIT: Orbitals with angular momentum L= 0

SPLIT: Basis orbitals for state 2s

SPLIT: PAO cut-off radius determined from an
SPLIT: energy shift=  0.007350 Ry

   izeta = 1
                 lambda =    1.000000
                     rc =    5.422032
                 energy =   -0.686029
                kinetic =    0.576707
    potential(screened) =   -1.262736
       potential(ionic) =   -3.271094

   izeta = 2
                 rmatch =    4.222573
              splitnorm =    0.150000
                 energy =   -0.602132
                kinetic =    0.858975
    potential(screened) =   -1.461107
       potential(ionic) =   -3.582536

SPLIT: Orbitals with angular momentum L= 1

SPLIT: Basis orbitals for state 2p

SPLIT: PAO cut-off radius determined from an
SPLIT: energy shift=  0.007350 Ry

   izeta = 1
                 lambda =    1.000000
                     rc =    6.790259
                 energy =   -0.258578
                kinetic =    1.481412
    potential(screened) =   -1.739989
       potential(ionic) =   -3.657461

   izeta = 2
                 rmatch =    4.608740
              splitnorm =    0.150000
                 energy =   -0.173757
                kinetic =    2.186690
    potential(screened) =   -2.360447
       potential(ionic) =   -4.464260

POLgen: Perturbative polarization orbital with L=  2

POLgen: Polarization orbital for state 2p

   izeta = 1
                     rc =    6.790259
                 energy =    0.684082
                kinetic =    1.471481
    potential(screened) =   -0.787399
       potential(ionic) =   -2.406985
atom: Total number of Sankey-type orbitals: 13

atm_pop: Valence configuration (for local Pseudopot. screening):
 2s( 2.00)                                                            
 2p( 1.00)                                                            
Vna: chval, zval:    3.00000   3.00000

Vna:  Cut-off radius for the neutral-atom potential:   6.790259
comcore: Pseudo-core radius Rcore=  2.122997

atom: _________________________________________________________________________

<basis_specs>
===============================================================================
C                    Z=   6    Mass=  12.010        Charge= 0.17977+309
Lmxo=1 Lmxkb= 3    BasisType=split      Semic=F
L=0  Nsemic=0  Cnfigmx=2
          n=1  nzeta=2  polorb=0
            splnorm:   0.15000    
               vcte:    0.0000    
               rinn:    0.0000    
                rcs:    0.0000      0.0000    
            lambdas:    1.0000      1.0000    
L=1  Nsemic=0  Cnfigmx=2
          n=1  nzeta=2  polorb=1
            splnorm:   0.15000    
               vcte:    0.0000    
               rinn:    0.0000    
                rcs:    0.0000      0.0000    
            lambdas:    1.0000      1.0000    
-------------------------------------------------------------------------------
L=0  Nkbl=1  erefs: 0.17977+309
L=1  Nkbl=1  erefs: 0.17977+309
L=2  Nkbl=1  erefs: 0.17977+309
L=3  Nkbl=1  erefs: 0.17977+309
===============================================================================
</basis_specs>

atom: Called for C                     (Z =   6)

read_vps: Pseudopotential generation method:
read_vps: ATM3      Troullier-Martins                       
Total valence charge:    4.00000

read_vps: Pseudopotential includes a core correction:
read_vps: Pseudo-core for xc-correction

xc_check: Exchange-correlation functional:
xc_check: GGA Perdew, Burke & Ernzerhof 1996
V l=0 = -2*Zval/r beyond r=  1.5227
V l=1 = -2*Zval/r beyond r=  1.5227
V l=2 = -2*Zval/r beyond r=  1.5227
V l=3 = -2*Zval/r beyond r=  1.5038
All V_l potentials equal beyond r=  1.5227
This should be close to max(r_c) in ps generation
All pots = -2*Zval/r beyond r=  1.5227

VLOCAL1: 99.0% of the norm of Vloc inside     18.722 Ry
VLOCAL1: 99.9% of the norm of Vloc inside     42.668 Ry
atom: Maximum radius for 4*pi*r*r*local-pseudopot. charge    1.83678
atom: Maximum radius for r*vlocal+2*Zval:    1.58088
GHOST: No ghost state for L =  0
GHOST: No ghost state for L =  1
GHOST: No ghost state for L =  2
GHOST: No ghost state for L =  3

KBgen: Kleinman-Bylander projectors: 
   l= 0   rc=  1.704034   el= -1.009801   Ekb=  5.335044   kbcos=  0.316824
   l= 1   rc=  1.704034   el= -0.388707   Ekb= -3.785862   kbcos= -0.366464
   l= 2   rc=  1.791422   el=  0.001971   Ekb= -0.970471   kbcos= -0.009212
   l= 3   rc=  1.859892   el=  0.003065   Ekb= -0.399525   kbcos= -0.001223

KBgen: Total number of  Kleinman-Bylander projectors:   16
atom: -------------------------------------------------------------------------

atom: SANKEY-TYPE ORBITALS:
atom: Selected multiple-zeta basis: split     

SPLIT: Orbitals with angular momentum L= 0

SPLIT: Basis orbitals for state 2s

SPLIT: PAO cut-off radius determined from an
SPLIT: energy shift=  0.007350 Ry

   izeta = 1
                 lambda =    1.000000
                     rc =    4.632753
                 energy =   -1.002270
                kinetic =    0.855760
    potential(screened) =   -1.858031
       potential(ionic) =   -5.417575

   izeta = 2
                 rmatch =    3.431921
              splitnorm =    0.150000
                 energy =   -0.867111
                kinetic =    1.300804
    potential(screened) =   -2.167915
       potential(ionic) =   -5.962684

SPLIT: Orbitals with angular momentum L= 1

SPLIT: Basis orbitals for state 2p

SPLIT: PAO cut-off radius determined from an
SPLIT: energy shift=  0.007350 Ry

   izeta = 1
                 lambda =    1.000000
                     rc =    5.658549
                 energy =   -0.381140
                kinetic =    2.399701
    potential(screened) =   -2.780841
       potential(ionic) =   -6.206085

   izeta = 2
                 rmatch =    3.653288
              splitnorm =    0.150000
                 energy =   -0.249149
                kinetic =    3.542762
    potential(screened) =   -3.791911
       potential(ionic) =   -7.581078

POLgen: Perturbative polarization orbital with L=  2

POLgen: Polarization orbital for state 2p

   izeta = 1
                     rc =    5.658549
                 energy =    1.109913
                kinetic =    2.304789
    potential(screened) =   -1.194876
       potential(ionic) =   -4.013592
atom: Total number of Sankey-type orbitals: 13

atm_pop: Valence configuration (for local Pseudopot. screening):
 2s( 2.00)                                                            
 2p( 2.00)                                                            
Vna: chval, zval:    4.00000   4.00000

Vna:  Cut-off radius for the neutral-atom potential:   5.658549
comcore: Pseudo-core radius Rcore=  1.791422

atom: _________________________________________________________________________

prinput: Basis input ----------------------------------------------------------

PAO.BasisType split     

%block ChemicalSpeciesLabel
    1    5 B                       # Species index, atomic number, species label
    2    6 C                       # Species index, atomic number, species label
%endblock ChemicalSpeciesLabel

%block PAO.Basis                 # Define Basis set
B                     2                    # Species label, number of l-shells
 n=2   0   2                         # n, l, Nzeta 
   5.422      4.223   
   1.000      1.000   
 n=2   1   2 P   1                   # n, l, Nzeta, Polarization, NzetaPol
   6.790      4.609   
   1.000      1.000   
C                     2                    # Species label, number of l-shells
 n=2   0   2                         # n, l, Nzeta 
   4.633      3.432   
   1.000      1.000   
 n=2   1   2 P   1                   # n, l, Nzeta, Polarization, NzetaPol
   5.659      3.653   
   1.000      1.000   
%endblock PAO.Basis

prinput: ----------------------------------------------------------------------

coor:   Atomic-coordinates input format  =     Fractional

siesta: Atomic coordinates (Bohr) and species
siesta:     -2.35420  38.89134   0.00000  1        1
siesta:     -2.35420  41.57980   0.00000  1        2
siesta:      9.28770  26.79272   0.00000  1        3
siesta:      9.28770  29.48119   0.00000  1        4
siesta:     -4.68258  34.85847   0.00000  1        5
siesta:     -4.68258  37.54693   0.00000  1        6
siesta:     -2.35420   6.62836   0.00000  1        7
siesta:     -2.35420   9.31683   0.00000  1        8
siesta:     -0.02582  10.66124   0.00000  1        9
siesta:     -0.02582  13.34970   0.00000  1       10
siesta:      2.30256  14.69411   0.00000  1       11
siesta:      2.30256  17.38257   0.00000  1       12
siesta:      4.63094  18.72698   0.00000  1       13
siesta:      4.63094  21.41544   0.00000  1       14
siesta:      6.95932  22.75985   0.00000  1       15
siesta:      6.95932  25.44831   0.00000  1       16
siesta:     -2.35420  25.44831   0.00000  1       17
siesta:    -11.66772  22.75985   0.00000  1       18
siesta:    -11.66772  25.44831   0.00000  1       19
siesta:     -9.33934  26.79272   0.00000  1       20
siesta:     -9.33934  29.48119   0.00000  1       21
siesta:     -7.01096  30.82560   0.00000  1       22
siesta:     -7.01096  33.51406   0.00000  1       23
siesta:     -0.02582  42.92421   0.00000  1       24
siesta:     -0.02582  45.61267   0.00000  1       25
siesta:     -0.02582   2.59549   0.00000  2       26
siesta:     -0.02582   5.28395   0.00000  2       27
siesta:      2.30256  38.89134   0.00000  2       28
siesta:      2.30256  41.57980   0.00000  2       29
siesta:      4.63094  34.85847   0.00000  2       30
siesta:      4.63094  37.54693   0.00000  2       31
siesta:      6.95932  30.82560   0.00000  2       32
siesta:      6.95932  33.51406   0.00000  2       33
siesta:      2.30256   6.62836   0.00000  2       34
siesta:      2.30256   9.31683   0.00000  2       35
siesta:      4.63094  10.66124   0.00000  2       36
siesta:      4.63094  13.34970   0.00000  2       37
siesta:      6.95932  14.69411   0.00000  2       38
siesta:      6.95932  17.38257   0.00000  2       39
siesta:      9.28770  18.72698   0.00000  2       40
siesta:      9.28770  21.41544   0.00000  2       41
siesta:     11.61608  22.75985   0.00000  2       42
siesta:     11.61608  25.44831   0.00000  2       43
siesta:     -4.68258  10.66124   0.00000  2       44
siesta:     -4.68258  13.34970   0.00000  2       45
siesta:     -2.35420  14.69411   0.00000  2       46
siesta:     -2.35420  17.38257   0.00000  2       47
siesta:     -0.02582  18.72698   0.00000  2       48
siesta:     -0.02582  21.41544   0.00000  2       49
siesta:      2.30256  22.75985   0.00000  2       50
siesta:      2.30256  25.44831   0.00000  2       51
siesta:     -7.01096  14.69411   0.00000  2       52
siesta:     -7.01096  17.38257   0.00000  2       53
siesta:     -4.68258  18.72698   0.00000  2       54
siesta:     -4.68258  21.41544   0.00000  2       55
siesta:     -2.35420  22.75985   0.00000  2       56
siesta:     -9.33934  18.72698   0.00000  2       57
siesta:     -9.33934  21.41544   0.00000  2       58
siesta:     -7.01096  22.75985   0.00000  2       59
siesta:     -7.01096  25.44831   0.00000  2       60
siesta:      4.63094  26.79272   0.00000  2       61
siesta:      4.63094  29.48119   0.00000  2       62
siesta:     -0.02582  26.79272   0.00000  2       63
siesta:     -0.02582  29.48119   0.00000  2       64
siesta:     -4.68258  26.79272   0.00000  2       65
siesta:     -4.68258  29.48119   0.00000  2       66
siesta:      2.30256  30.82560   0.00000  2       67
siesta:      2.30256  33.51406   0.00000  2       68
siesta:     -2.35420  30.82560   0.00000  2       69
siesta:     -2.35420  33.51406   0.00000  2       70
siesta:     -0.02582  34.85847   0.00000  2       71
siesta:     -0.02582  37.54693   0.00000  2       72

siesta: System type = slab      

initatomlists: Number of atoms, orbitals, and projectors:     72   936  1152

siesta: ******************** Simulation parameters ****************************
siesta:
siesta: The following are some of the parameters of the simulation.
siesta: A complete list of the parameters used, including default values,
siesta: can be found in file out.fdf
siesta:
redata: Non-Collinear-spin run           =     F
redata: SpinPolarized (Up/Down) run      =     F
redata: Number of spin components        =     1
redata: Long output                      =     F
redata: Number of Atomic Species         =        2
redata: Charge density info will appear in .RHO file
redata: Write Mulliken Pop.              =     NO
redata: Mesh Cutoff                      =   200.0000  Ry
redata: Net charge of the system         =     0.0000 |e|
redata: Max. number of SCF Iter          =      500
redata: SCF convergence failure will abort job
redata: Performing Pulay mixing using    =    10 iterations
redata: Mix DM in first SCF step ?       =     F
redata: Write Pulay info on disk?        =     F
redata: Discard 1st Pulay DM after  kick =     F
redata: New DM Mixing Weight             =     0.0500
redata: New DM Occupancy tolerance       = 0.000000000001
redata: No kicks to SCF
redata: DM Mixing Weight for Kicks       =     0.5000
redata: DM Tolerance for SCF             =     0.000100
redata: Require Energy convergence for SCF =     F
redata: DM Energy tolerance for SCF      =     0.000100 eV
redata: Require Harris convergence for SCF =     F
redata: DM Harris energy tolerance for SCF =     0.000100 eV
redata: Using Saved Data (generic)   =     F
redata: Use continuation files for DM    =     T
redata: Neglect nonoverlap interactions  =     F
redata: Method of Calculation            =     Diagonalization
redata: Divide and Conquer               =     T
redata: Electronic Temperature           =     0.0019  Ry
redata: Fix the spin of the system       =     F
redata: Dynamics option                  =     Verlet MD run
redata: Initial MD time step             =        1
redata:   Final MD time step             =        1
redata: Length of MD time step           =     1.0000  fs
redata: Initial Temperature of MD run    =     0.0000  K
redata: Perform a MD quench              =     F
redata: ***********************************************************************
Total number of electrons:   263.000000
Total ionic charge:   263.000000

* ProcessorY, Blocksize:    2  24

k-point displ. along   1 input, could be:     0.50    0.00
k-point displ. along   2 input, could be:     0.50    0.00
 Kpoints in:          231 . Kpoints trimmed:          231

siesta: k-grid: Number of k-points =   231
siesta: k-grid: Cutoff (effective) =     5.000 Ang
siesta: k-grid: Supercell and displacements
siesta: k-grid:   21   0   0      0.500
siesta: k-grid:    0  21   0      0.500
siesta: k-grid:    0   0   1      0.000
Naive supercell factors:     2    2    2

superc: Internal auxiliary supercell:     2 x     2 x     2  =       8
superc: Number of atoms, orbitals, and projectors:    576   7488   9216

* Maximum dynamic memory allocated =     4 MB

siesta:                 ==============================
                            Begin MD step =      1
                        ==============================

superc: Internal auxiliary supercell:     2 x     2 x     2  =       8
superc: Number of atoms, orbitals, and projectors:    576   7488   9216

outcell: Unit cell vectors (Ang):
       12.804619    7.392750    0.000000
        0.000000   14.785500    0.000000
        0.000000    0.000000   10.000000

outcell: Cell vector modules (Ang)   :   14.785500   14.785500   10.000000
outcell: Cell angles (23,13,12) (deg):     90.0000     90.0000     60.0000
outcell: Cell volume (Ang**3)        :   1893.2269
New_DM. Step:     1
Initializing Density Matrix...

InitMesh: MESH =   120 x   120 x    90 =     1296000
InitMesh: Mesh cutoff (required, used) =   200.000   223.865 Ry

* Maximum dynamic memory allocated =   233 MB

stepf: Fermi-Dirac step function

siesta: Program's energy decomposition (eV):
siesta: Ebs     =     -5406.904166
siesta: Eions   =     15201.593291
siesta: Ena     =      4123.115690
siesta: Ekin    =      5059.728642
siesta: Enl     =       858.510947
siesta: DEna    =        -0.000006
siesta: DUscf   =         0.000000
siesta: DUext   =         0.000000
siesta: Exc     =     -4199.726580
siesta: eta*DQ  =         0.000000
siesta: Emadel  =         0.000000
siesta: Emeta   =         0.000000
siesta: Emolmec =         0.000000
siesta: Ekinion =         0.000000
siesta: Eharris =     -9183.113947
siesta: Etot    =     -9359.964599
siesta: FreeEng =     -9359.964599

siesta: iscf   Eharris(eV)      E_KS(eV)   FreeEng(eV)   dDmax  Ef(eV)
siesta:    1    -9183.1139    -9359.9646    -9359.9646  6.4428 -8.5507
timer: Routine,Calls,Time,% = IterSCF        1    4511.869  99.74
elaps: Routine,Calls,Wall,% = IterSCF        1     564.691  99.74
siesta:    2   -14031.8033    -8318.3743    -8318.3903 17.6282 -5.3353
siesta:    3    -9256.9786    -9173.7695    -9173.8108  1.5339 -5.8525
siesta:    4    -9174.5530    -9114.1218    -9114.1559  1.2764 -5.2906
siesta:    5    -9098.9052    -9061.4802    -9061.5389  1.1365 -5.2066
siesta:    6    -9066.7131    -9032.6935    -9032.7408  0.9888 -4.9949
siesta:    7    -9042.0696    -9014.5526    -9014.6033  0.8317 -5.2695
siesta:    8    -9033.5736    -9004.7979    -9004.8486  0.6913 -5.1312
siesta:    9    -9031.3890    -8997.7264    -8997.7652  0.4958 -5.0479
siesta:   10    -9029.4698    -8996.6535    -8996.7264  0.4256 -5.0755
siesta:   11    -9028.6754    -8999.0617    -8999.1319  0.3496 -5.0956
siesta:   12    -9028.6123    -9000.6510    -9000.6965  0.3228 -5.1193
siesta:   13    -9027.5762    -9006.5192    -9006.5745  0.2749 -5.0646
siesta:   14    -9027.3604    -9009.9769    -9010.0318  0.1903 -5.1024
siesta:   15    -9027.0380    -9015.1615    -9015.2130  0.1260 -5.1626
siesta:   16    -9026.8851    -9017.5878    -9017.6434  0.1391 -5.1210
siesta:   17    -9026.7621    -9021.8040    -9021.8533  0.0709 -5.1730
siesta:   18    -9026.7048    -9023.2611    -9023.3164  0.0799 -5.1682
siesta:   19    -9026.7021    -9024.3358    -9024.3909  0.1346 -5.1998
siesta:   20    -9026.6832    -9024.8008    -9024.8600  0.0898 -5.1557
siesta:   21    -9026.6551    -9025.2647    -9025.3158  0.0238 -5.1769
siesta:   22    -9026.6462    -9025.0736    -9025.1296  0.0204 -5.1626
siesta:   23    -9026.6419    -9025.5229    -9025.5772  0.0198 -5.1629
siesta:   24    -9026.6400    -9025.9872    -9026.0413  0.0111 -5.1608
siesta:   25    -9026.6389    -9026.2666    -9026.3214  0.0091 -5.1631
siesta:   26    -9026.6387    -9026.4813    -9026.5366  0.0074 -5.1625
siesta:   27    -9026.6385    -9026.4225    -9026.4776  0.0036 -5.1635
siesta:   28    -9026.6385    -9026.4262    -9026.4813  0.0030 -5.1632
siesta:   29    -9026.6385    -9026.4844    -9026.5394  0.0026 -5.1627
siesta:   30    -9026.6384    -9026.5149    -9026.5699  0.0015 -5.1620
siesta:   31    -9026.6384    -9026.5816    -9026.6366  0.0011 -5.1626
siesta:   32    -9026.6383    -9026.6372    -9026.6923  0.0006 -5.1633
siesta:   33    -9026.6383    -9026.6461    -9026.7012  0.0004 -5.1633
siesta:   34    -9026.6384    -9026.6378    -9026.6928  0.0003 -5.1632
siesta:   35    -9026.6384    -9026.6361    -9026.6911  0.0002 -5.1632
siesta:   36    -9026.6384    -9026.6378    -9026.6928  0.0002 -5.1631
siesta:   37    -9026.6384    -9026.6314    -9026.6864  0.0001 -5.1631

siesta: E_KS(eV) =            -9026.6321

siesta: E_KS - E_eggbox =     -9026.6321

siesta: Atomic forces (eV/Ang):
----------------------------------------
   Tot   -0.075129    0.018360    0.000000
----------------------------------------
   Max  564.499354
   Res  134.630627    sqrt( Sum f_i^2 / 3N )
----------------------------------------
   Max  564.499354    constrained

Stress-tensor-Voigt (kbar):     -701.18    -2452.72       -0.74       -9.95        0.00        0.00
(Free)E + p*V (eV/cell)    -7784.1293
Target enthalpy (eV/cell)    -9026.6871

siesta: Stress tensor (static) (eV/Ang**3):
        -0.437639   -0.006213    0.000000
        -0.006213   -1.530850    0.000000
         0.000000    0.000000   -0.000463

siesta: Pressure (static):       1051.54778333  kBar

siesta: Stress tensor (total) (eV/Ang**3):
        -0.437639   -0.006213    0.000000
        -0.006213   -1.530850    0.000000
         0.000000    0.000000   -0.000463

siesta: Pressure (total):       1051.54778333  kBar

siesta: Temp_ion =       0.000 K

* Maximum dynamic memory allocated =   250 MB
Computing bands...

siesta: Program's energy decomposition (eV):
siesta: Ebs     =     -4067.127687
siesta: Eions   =     15201.593291
siesta: Ena     =      4123.115690
siesta: Ekin    =      7818.590534
siesta: Enl     =      -773.045544
siesta: DEna    =      -730.643031
siesta: DUscf   =        97.297727
siesta: DUext   =         0.000000
siesta: Exc     =     -4360.354149
siesta: eta*DQ  =         0.000000
siesta: Emadel  =         0.000000
siesta: Emeta   =         0.000000
siesta: Emolmec =         0.000000
siesta: Ekinion =         0.000000
siesta: Eharris =     -9026.638363
siesta: Etot    =     -9026.632065
siesta: FreeEng =     -9026.687075

siesta: Final energy (eV):
siesta:  Band Struct. =   -4067.127687
siesta:       Kinetic =    7818.590534
siesta:       Hartree =   25363.313854
siesta:    Ext. field =       0.000000
siesta:   Exch.-corr. =   -4360.354149
siesta:  Ion-electron =  -58301.599883
siesta:       Ion-ion =   20453.417580
siesta:       Ekinion =       0.000000
siesta:         Total =   -9026.632065

siesta: Atomic forces (eV/Ang):
siesta:      1   -2.344597   99.772265    0.000000
siesta:      2    1.437443 -400.736635    0.000000
siesta:      3    9.301732   -1.962873    0.000000
siesta:      4   -0.270488    5.470348    0.000000
siesta:      5  -16.637068   -0.565065    0.000000
siesta:      6  -18.004113 -396.569640    0.000000
siesta:      7   -2.229439  402.129356    0.000000
siesta:      8    0.569454  -99.535127    0.000000
siesta:      9   -5.116359  395.040411    0.000000
siesta:     10    1.652618 -102.094170    0.000000
siesta:     11   16.511705  402.390088    0.000000
siesta:     12   15.195267   -0.534729    0.000000
siesta:     13    3.523759   -3.000161    0.000000
siesta:     14   -5.526025    3.899190    0.000000
siesta:     15    4.487064   -3.972154    0.000000
siesta:     16   -5.969998    3.479782    0.000000
siesta:     17    0.155543    0.442985    0.000000
siesta:     18   -2.379299   -4.257444    0.000000
siesta:     19   -6.189761    3.044625    0.000000
siesta:     20   -1.119975   -1.084674    0.000000
siesta:     21   -4.387082    1.625555    0.000000
siesta:     22    0.529519    1.898945    0.000000
siesta:     23   -3.949233    3.592890    0.000000
siesta:     24   -1.841440   99.333673    0.000000
siesta:     25   -3.704226 -409.387060    0.000000
siesta:     26   -1.183811  551.181654    0.000000
siesta:     27   -7.321492 -118.177842    0.000000
siesta:     28   -1.558292  126.962801    0.000000
siesta:     29    6.862595 -404.743627    0.000000
siesta:     30   26.395544    4.781496    0.000000
siesta:     31   35.707627 -551.508671    0.000000
siesta:     32   -1.063281    3.704820    0.000000
siesta:     33   -2.019689    1.451018    0.000000
siesta:     34   12.154911  546.122300    0.000000
siesta:     35   -4.526994 -117.921457    0.000000
siesta:     36   30.917675  549.784199    0.000000
siesta:     37   24.993574   -0.605214    0.000000
siesta:     38   -1.977362   -1.671370    0.000000
siesta:     39    6.934413   -3.116728    0.000000
siesta:     40   -2.518963    0.145871    0.000000
siesta:     41    6.192395   -3.037797    0.000000
siesta:     42    1.223139    5.228361    0.000000
siesta:     43    1.583124   -7.271805    0.000000
siesta:     44  -23.688707  401.589428    0.000000
siesta:     45  -24.264119    1.039762    0.000000
siesta:     46  -20.684794  409.992373    0.000000
siesta:     47  -22.257451   -2.878667    0.000000
siesta:     48    2.803028  417.824168    0.000000
siesta:     49   -1.065122    3.126435    0.000000
siesta:     50   -3.521478    0.660540    0.000000
siesta:     51   -1.712461    1.446200    0.000000
siesta:     52    1.791512   -2.363956    0.000000
siesta:     53   -1.847960   -0.693157    0.000000
siesta:     54    1.059889    1.051308    0.000000
siesta:     55   -0.081839    0.052947    0.000000
siesta:     56    0.672305   -3.772918    0.000000
siesta:     57    0.119960    0.120536    0.000000
siesta:     58    0.311253   -2.998694    0.000000
siesta:     59    1.244544    0.574256    0.000000
siesta:     60    3.641256   -1.269378    0.000000
siesta:     61   -1.645500    0.923087    0.000000
siesta:     62   -1.075427   -1.562132    0.000000
siesta:     63    3.345042    0.719245    0.000000
siesta:     64    0.666383 -564.499354    0.000000
siesta:     65   -2.777936    1.047709    0.000000
siesta:     66    3.973923   -3.371682    0.000000
siesta:     67   22.018636    5.953503    0.000000
siesta:     68   31.439591 -556.205600    0.000000
siesta:     69  -22.347609    1.805595    0.000000
siesta:     70  -33.537113 -413.540038    0.000000
siesta:     71   -4.566062  128.916044    0.000000
siesta:     72  -12.578989 -403.397589    0.000000
siesta: ----------------------------------------
siesta:    Tot   -0.075129    0.018360    0.000000

siesta: Stress tensor (static) (eV/Ang**3):
siesta:    -0.437639   -0.006213    0.000000
siesta:    -0.006213   -1.530850    0.000000
siesta:     0.000000    0.000000   -0.000463

siesta: Cell volume =       1893.226884 Ang**3

siesta: Pressure (static):
siesta:                Solid            Molecule  Units
siesta:           0.00714813          0.10309103  Ry/Bohr**3
siesta:           0.65631741          9.46546737  eV/Ang**3
siesta:        1051.54778333      15165.51457906  kBar
(Free)E+ p_basis*V_orbitals  =       -8988.050623
(Free)Eharris+ p_basis*V_orbitals  =       -8988.057615

siesta: Electric dipole (a.u.)  =    0.000000    0.000000    0.000000
siesta: Electric dipole (Debye) =    0.000000    0.000000    0.000000

* Maximum dynamic memory allocated : Node    0 =   250 MB
* Maximum dynamic memory allocated : Node    1 =    87 MB
* Maximum dynamic memory allocated : Node    2 =    91 MB
* Maximum dynamic memory allocated : Node    3 =   237 MB
* Maximum dynamic memory allocated : Node    4 =   232 MB
* Maximum dynamic memory allocated : Node    5 =    84 MB
* Maximum dynamic memory allocated : Node    6 =    86 MB
* Maximum dynamic memory allocated : Node    7 =   212 MB

* Maximum memory occured during matrixMtoO                    

timer: CPU execution times:
timer:  Routine       Calls   Time/call    Tot.time        %
timer:  siesta            1  164324.590  164324.590   100.00
timer:  Setup             1       3.035       3.035     0.00
timer:  bands             3     269.245     807.735     0.49
timer:  writewave         1       0.020       0.020     0.00
timer:  KSV_init          1       0.000       0.000     0.00
timer:  IterMD            1  163507.971  163507.971    99.50
timer:  hsparse           1       0.395       0.395     0.00
timer:  overlap           1       7.806       7.806     0.00
timer:  IterSCF          37    4412.404  163258.931    99.35
timer:  kinefsm           2       4.050       8.099     0.00
timer:  nlefsm            2      22.357      44.714     0.03
timer:  DHSCF            38     137.010    5206.371     3.17
timer:  DHSCF1            1       0.997       0.997     0.00
timer:  DHSCF2            1      46.125      46.125     0.03
timer:  REORD           306       0.010       3.052     0.00
timer:  POISON           39       2.235      87.161     0.05
timer:  DHSCF3           38     134.524    5111.925     3.11
timer:  rhoofd           38      27.890    1059.804     0.64
timer:  cellXC           38       3.553     135.001     0.08
timer:  vmat             38      63.624    2417.699     1.47
timer:  MolMec            2       0.000       0.000     0.00
timer:  diagon           37    4274.150  158143.544    96.24
timer:  c-eigval       8668       6.682   57921.064    35.25
timer:  c-buildHS      8668       0.124    1073.530     0.65
timer:  cdiag         17215       6.893  118671.280    72.22
timer:  cdiag1        17215       0.428    7368.623     4.48
timer:  cdiag2        17215       1.907   32824.630    19.98
timer:  cdiag3        17215       3.945   67914.122    41.33
timer:  cdiag4        17215       0.222    3816.246     2.32
timer:  c-eigvec       8547       7.303   62419.540    37.99
timer:  c-buildD       8547       4.512   38563.443    23.47
timer:  DHSCF4            1      45.371      45.371     0.03
timer:  dfscf             1      42.609      42.609     0.03
timer:  overfsm           1       0.498       0.498     0.00
timer:  optical           1       5.107       5.107     0.00
  

elaps: ELAPSED times:
elaps:  Routine       Calls   Time/call    Tot.time        %
elaps:  siesta            1   20564.737   20564.737   100.00
elaps:  Setup             1       0.380       0.380     0.00
elaps:  bands             3      33.707     101.120     0.49
elaps:  writewave         1       0.002       0.002     0.00
elaps:  KSV_init          1       0.000       0.000     0.00
elaps:  IterMD            1   20462.562   20462.562    99.50
elaps:  hsparse           1       0.052       0.052     0.00
elaps:  overlap           1       0.989       0.989     0.00
elaps:  IterSCF          37     552.200   20431.408    99.35
elaps:  kinefsm           2       0.509       1.017     0.00
elaps:  nlefsm            2       2.678       5.356     0.03
elaps:  DHSCF            38      17.288     656.946     3.19
elaps:  DHSCF1            1       0.129       0.129     0.00
elaps:  DHSCF2            1       5.768       5.768     0.03
elaps:  REORD           306       0.001       0.404     0.00
elaps:  POISON           39       0.280      10.904     0.05
elaps:  DHSCF3           38      16.829     639.512     3.11
elaps:  rhoofd           38       7.233     274.865     1.34
elaps:  cellXC           38       0.444      16.857     0.08
elaps:  vmat             38       7.959     302.442     1.47
elaps:  MolMec            2       0.000       0.000     0.00
elaps:  diagon           37     534.929   19792.366    96.24
elaps:  c-eigval       8668       0.836    7246.992    35.24
elaps:  c-buildHS      8668       0.017     147.473     0.72
elaps:  cdiag         17215       0.848   14601.514    71.00
elaps:  cdiag1        17215       0.053     913.473     4.44
elaps:  cdiag2        17215       0.239    4107.247    19.97
elaps:  cdiag3        17215       0.494    8508.891    41.38
elaps:  cdiag4        17215       0.028     480.532     2.34
elaps:  c-eigvec       8547       0.890    7604.582    36.98
elaps:  c-buildD       8547       0.589    5034.682    24.48
elaps:  DHSCF4            1      11.266      11.266     0.05
elaps:  dfscf             1      10.724      10.724     0.05
elaps:  overfsm           1       0.062       0.062     0.00
elaps:  optical           1       0.000       0.000     0.00
  
>> End of run:  21-APR-2016   8:00:12
