Siesta Version:                                        siesta-3.2-pl-3
Architecture  : x86_64-unknown-linux-gnu--unknown
Compiler flags: mpiifort -g -O2 -fPIC -xSSE4.1 -fp-model source -shared-intel 
PARALLEL version

* Running on   12 nodes in parallel
>> Start of run:   6-APR-2016  14:04:36

                           ***********************       
                           *  WELCOME TO SIESTA  *       
                           ***********************       

reinit: Reading from standard input
************************** Dump of input data file ****************************
#(1) General system descriptors
SystemName            GRP_doping    # Descriptive name of the system
SystemLabel           GRP_doping    # Short name for naming files
%include STRUCT.fdf
%include KPT.fdf
%include BASIS.fdf
#%include TS.fdf # for transiesta calculation
#(4) DFT, Grid, SCF
XC.functional         GGA           # LDA or GGA (default = LDA)
XC.authors            PBE           # CA (Ceperley-Aldr) = PZ
                                    #    (Perdew-Zunger) - LDA - Default
                                    # PW92 (Perdew-Wang-92) - LDA
                                    # PBE (Perdew-Burke-Ernzerhof) - GGA
MeshCutoff            200.000000    Ry      # Default: 50.0 Ry ~ 0.444 Bohr
                                    #         100.0 Ry ~ 0.314 Bohr
MaxSCFIterations      500           # Default: 50
DM.MixingWeight       0.05          # Default: 0.25
DM.NumberPulay        10            # Default: 0
DM.PulayOnFile        F             # SystemLabel.P1, SystemLabel.P2
DM.Tolerance          1.d-4         # Default: 1.d-4
DM.UseSaveDM          .true.        # because of the bug
SCFMustConverge       .true.
NeglNonOverlapInt     F             # Default: F
Diag.ParallelOverK    .true.
#(5) Eigenvalue problem: order-N or diagonalization
SolutionMethod        Diagon        # or Transiesta
ElectronicTemperature 300.0 K       # Default: 300.0 K
#(6) Molecular dynamics and relaxations
#MD.TypeOfRun          CG            # Type of dynamics:
#MD.VariableCell       F
#MD.NumCGsteps         0           # 0 for single-point / 100 for gopt
#MD.MaxCGDispl         0.2 Bohr      # Default: 0.2 Bohr
#MD.MaxForceTol        0.02 eV/Ang   # Default: 0.04 eV/Ang
#MD.MaxStressTol       1.0 GPa       # Default: 1.0 GPa
************************** End of input data file *****************************

reinit: -----------------------------------------------------------------------
reinit: System Name: GRP_doping
reinit: -----------------------------------------------------------------------
reinit: System Label: GRP_doping                                                  
reinit: -----------------------------------------------------------------------

initatom: Reading input for the pseudopotentials and atomic orbitals ----------
 Species number:            1  Label: C Atomic number:           6
 Species number:            2  Label: B Atomic number:           5
Ground state valence configuration:   2s02  2p02
Reading pseudopotential information in formatted form from C.psf

Valence configuration for pseudopotential generation:
2s( 2.00) rc: 1.54
2p( 2.00) rc: 1.54
3d( 0.00) rc: 1.54
4f( 0.00) rc: 1.54
Ground state valence configuration:   2s02  2p01
Reading pseudopotential information in formatted form from B.psf

Valence configuration for pseudopotential generation:
2s( 2.00) rc: 1.74
2p( 1.00) rc: 1.74
3d( 0.00) rc: 1.74
4f( 0.00) rc: 1.74
For C, standard SIESTA heuristics set lmxkb to 3
 (one more than the basis l, including polarization orbitals).
Use PS.lmax or PS.KBprojectors blocks to override.
For B, standard SIESTA heuristics set lmxkb to 3
 (one more than the basis l, including polarization orbitals).
Use PS.lmax or PS.KBprojectors blocks to override.

<basis_specs>
===============================================================================
C                    Z=   6    Mass=  12.010        Charge= 0.17977+309
Lmxo=1 Lmxkb= 3    BasisType=split      Semic=F
L=0  Nsemic=0  Cnfigmx=2
          n=1  nzeta=2  polorb=0
            splnorm:   0.15000    
               vcte:    0.0000    
               rinn:    0.0000    
                rcs:    0.0000      0.0000    
            lambdas:    1.0000      1.0000    
L=1  Nsemic=0  Cnfigmx=2
          n=1  nzeta=2  polorb=1
            splnorm:   0.15000    
               vcte:    0.0000    
               rinn:    0.0000    
                rcs:    0.0000      0.0000    
            lambdas:    1.0000      1.0000    
-------------------------------------------------------------------------------
L=0  Nkbl=1  erefs: 0.17977+309
L=1  Nkbl=1  erefs: 0.17977+309
L=2  Nkbl=1  erefs: 0.17977+309
L=3  Nkbl=1  erefs: 0.17977+309
===============================================================================
</basis_specs>

atom: Called for C                     (Z =   6)

read_vps: Pseudopotential generation method:
read_vps: ATM3      Troullier-Martins                       
Total valence charge:    4.00000

read_vps: Pseudopotential includes a core correction:
read_vps: Pseudo-core for xc-correction

xc_check: Exchange-correlation functional:
xc_check: GGA Perdew, Burke & Ernzerhof 1996
V l=0 = -2*Zval/r beyond r=  1.5227
V l=1 = -2*Zval/r beyond r=  1.5227
V l=2 = -2*Zval/r beyond r=  1.5227
V l=3 = -2*Zval/r beyond r=  1.5038
All V_l potentials equal beyond r=  1.5227
This should be close to max(r_c) in ps generation
All pots = -2*Zval/r beyond r=  1.5227

VLOCAL1: 99.0% of the norm of Vloc inside     18.722 Ry
VLOCAL1: 99.9% of the norm of Vloc inside     42.668 Ry
atom: Maximum radius for 4*pi*r*r*local-pseudopot. charge    1.83678
atom: Maximum radius for r*vlocal+2*Zval:    1.58088
GHOST: No ghost state for L =  0
GHOST: No ghost state for L =  1
GHOST: No ghost state for L =  2
GHOST: No ghost state for L =  3

KBgen: Kleinman-Bylander projectors: 
   l= 0   rc=  1.704034   el= -1.009801   Ekb=  5.335044   kbcos=  0.316824
   l= 1   rc=  1.704034   el= -0.388707   Ekb= -3.785862   kbcos= -0.366464
   l= 2   rc=  1.791422   el=  0.001971   Ekb= -0.970471   kbcos= -0.009212
   l= 3   rc=  1.859892   el=  0.003065   Ekb= -0.399525   kbcos= -0.001223

KBgen: Total number of  Kleinman-Bylander projectors:   16
atom: -------------------------------------------------------------------------

atom: SANKEY-TYPE ORBITALS:
atom: Selected multiple-zeta basis: split     

SPLIT: Orbitals with angular momentum L= 0

SPLIT: Basis orbitals for state 2s

SPLIT: PAO cut-off radius determined from an
SPLIT: energy shift=  0.007350 Ry

   izeta = 1
                 lambda =    1.000000
                     rc =    4.632753
                 energy =   -1.002270
                kinetic =    0.855760
    potential(screened) =   -1.858031
       potential(ionic) =   -5.417575

   izeta = 2
                 rmatch =    3.431921
              splitnorm =    0.150000
                 energy =   -0.867111
                kinetic =    1.300804
    potential(screened) =   -2.167915
       potential(ionic) =   -5.962684

SPLIT: Orbitals with angular momentum L= 1

SPLIT: Basis orbitals for state 2p

SPLIT: PAO cut-off radius determined from an
SPLIT: energy shift=  0.007350 Ry

   izeta = 1
                 lambda =    1.000000
                     rc =    5.658549
                 energy =   -0.381140
                kinetic =    2.399701
    potential(screened) =   -2.780841
       potential(ionic) =   -6.206085

   izeta = 2
                 rmatch =    3.653288
              splitnorm =    0.150000
                 energy =   -0.249149
                kinetic =    3.542762
    potential(screened) =   -3.791911
       potential(ionic) =   -7.581078

POLgen: Perturbative polarization orbital with L=  2

POLgen: Polarization orbital for state 2p

   izeta = 1
                     rc =    5.658549
                 energy =    1.109913
                kinetic =    2.304789
    potential(screened) =   -1.194876
       potential(ionic) =   -4.013592
atom: Total number of Sankey-type orbitals: 13

atm_pop: Valence configuration (for local Pseudopot. screening):
 2s( 2.00)                                                            
 2p( 2.00)                                                            
Vna: chval, zval:    4.00000   4.00000

Vna:  Cut-off radius for the neutral-atom potential:   5.658549
comcore: Pseudo-core radius Rcore=  1.791422

atom: _________________________________________________________________________

<basis_specs>
===============================================================================
B                    Z=   5    Mass=  10.810        Charge= 0.17977+309
Lmxo=1 Lmxkb= 3    BasisType=split      Semic=F
L=0  Nsemic=0  Cnfigmx=2
          n=1  nzeta=2  polorb=0
            splnorm:   0.15000    
               vcte:    0.0000    
               rinn:    0.0000    
                rcs:    0.0000      0.0000    
            lambdas:    1.0000      1.0000    
L=1  Nsemic=0  Cnfigmx=2
          n=1  nzeta=2  polorb=1
            splnorm:   0.15000    
               vcte:    0.0000    
               rinn:    0.0000    
                rcs:    0.0000      0.0000    
            lambdas:    1.0000      1.0000    
-------------------------------------------------------------------------------
L=0  Nkbl=1  erefs: 0.17977+309
L=1  Nkbl=1  erefs: 0.17977+309
L=2  Nkbl=1  erefs: 0.17977+309
L=3  Nkbl=1  erefs: 0.17977+309
===============================================================================
</basis_specs>

atom: Called for B                     (Z =   5)

read_vps: Pseudopotential generation method:
read_vps: ATM3      Troullier-Martins                       
Total valence charge:    3.00000

read_vps: Pseudopotential includes a core correction:
read_vps: Pseudo-core for xc-correction

xc_check: Exchange-correlation functional:
xc_check: GGA Perdew, Burke & Ernzerhof 1996
V l=0 = -2*Zval/r beyond r=  1.7165
V l=1 = -2*Zval/r beyond r=  1.7165
V l=2 = -2*Zval/r beyond r=  1.7165
V l=3 = -2*Zval/r beyond r=  1.6951
All V_l potentials equal beyond r=  1.7165
This should be close to max(r_c) in ps generation
All pots = -2*Zval/r beyond r=  1.7165

VLOCAL1: 99.0% of the norm of Vloc inside     14.733 Ry
VLOCAL1: 99.9% of the norm of Vloc inside     33.577 Ry
atom: Maximum radius for 4*pi*r*r*local-pseudopot. charge    2.04484
atom: Maximum radius for r*vlocal+2*Zval:    1.75994
GHOST: No ghost state for L =  0
GHOST: No ghost state for L =  1
GHOST: No ghost state for L =  2
GHOST: No ghost state for L =  3

KBgen: Kleinman-Bylander projectors: 
   l= 0   rc=  1.897051   el= -0.693730   Ekb=  4.595746   kbcos=  0.286105
   l= 1   rc=  1.920920   el= -0.265236   Ekb= -2.350715   kbcos= -0.315747
   l= 2   rc=  2.044840   el=  0.002055   Ekb= -0.690767   kbcos= -0.013822
   l= 3   rc=  2.149707   el=  0.003188   Ekb= -0.315358   kbcos= -0.002055

KBgen: Total number of  Kleinman-Bylander projectors:   16
atom: -------------------------------------------------------------------------

atom: SANKEY-TYPE ORBITALS:
atom: Selected multiple-zeta basis: split     

SPLIT: Orbitals with angular momentum L= 0

SPLIT: Basis orbitals for state 2s

SPLIT: PAO cut-off radius determined from an
SPLIT: energy shift=  0.007350 Ry

   izeta = 1
                 lambda =    1.000000
                     rc =    5.422032
                 energy =   -0.686029
                kinetic =    0.576707
    potential(screened) =   -1.262736
       potential(ionic) =   -3.271094

   izeta = 2
                 rmatch =    4.222573
              splitnorm =    0.150000
                 energy =   -0.602132
                kinetic =    0.858975
    potential(screened) =   -1.461107
       potential(ionic) =   -3.582536

SPLIT: Orbitals with angular momentum L= 1

SPLIT: Basis orbitals for state 2p

SPLIT: PAO cut-off radius determined from an
SPLIT: energy shift=  0.007350 Ry

   izeta = 1
                 lambda =    1.000000
                     rc =    6.790259
                 energy =   -0.258578
                kinetic =    1.481412
    potential(screened) =   -1.739989
       potential(ionic) =   -3.657461

   izeta = 2
                 rmatch =    4.608740
              splitnorm =    0.150000
                 energy =   -0.173757
                kinetic =    2.186690
    potential(screened) =   -2.360447
       potential(ionic) =   -4.464260

POLgen: Perturbative polarization orbital with L=  2

POLgen: Polarization orbital for state 2p

   izeta = 1
                     rc =    6.790259
                 energy =    0.684082
                kinetic =    1.471481
    potential(screened) =   -0.787399
       potential(ionic) =   -2.406985
atom: Total number of Sankey-type orbitals: 13

atm_pop: Valence configuration (for local Pseudopot. screening):
 2s( 2.00)                                                            
 2p( 1.00)                                                            
Vna: chval, zval:    3.00000   3.00000

Vna:  Cut-off radius for the neutral-atom potential:   6.790259
comcore: Pseudo-core radius Rcore=  2.122997

atom: _________________________________________________________________________

prinput: Basis input ----------------------------------------------------------

PAO.BasisType split     

%block ChemicalSpeciesLabel
    1    6 C                       # Species index, atomic number, species label
    2    5 B                       # Species index, atomic number, species label
%endblock ChemicalSpeciesLabel

%block PAO.Basis                 # Define Basis set
C                     2                    # Species label, number of l-shells
 n=2   0   2                         # n, l, Nzeta 
   4.633      3.432   
   1.000      1.000   
 n=2   1   2 P   1                   # n, l, Nzeta, Polarization, NzetaPol
   5.659      3.653   
   1.000      1.000   
B                     2                    # Species label, number of l-shells
 n=2   0   2                         # n, l, Nzeta 
   5.422      4.223   
   1.000      1.000   
 n=2   1   2 P   1                   # n, l, Nzeta, Polarization, NzetaPol
   6.790      4.609   
   1.000      1.000   
%endblock PAO.Basis

prinput: ----------------------------------------------------------------------

coor:   Atomic-coordinates input format  =     Cartesian coordinates
coor:                                          (in Angstroms)

siesta: Atomic coordinates (Bohr) and species
siesta:      2.23554   1.32097   0.00000  1        1
siesta:      4.56367   2.66461   0.00000  1        2
siesta:     32.50328  21.48508   0.00000  1        3
siesta:     34.83141  22.82873   0.00000  1        4
siesta:     34.83116  17.45226   0.00000  1        5
siesta:     37.15930  18.79590   0.00000  1        6
siesta:     32.50291  13.41944   0.00000  1        7
siesta:     34.83104  14.76308   0.00000  1        8
siesta:     30.17465   9.38661   0.00000  1        9
siesta:     32.50278  10.73026   0.00000  1       10
siesta:     27.84639   5.35379   0.00000  1       11
siesta:     30.17453   6.69743   0.00000  1       12
siesta:     27.84714  21.48508   0.00000  1       13
siesta:     30.17527  22.82873   0.00000  1       14
siesta:      6.89168   1.32097   0.00000  1       15
siesta:      9.21981   2.66461   0.00000  1       16
siesta:     11.54782   1.32097   0.00000  1       17
siesta:     13.87595   2.66461   0.00000  1       18
siesta:     16.20396   1.32097   0.00000  1       19
siesta:     18.53210   2.66461   0.00000  1       20
siesta:     20.86199   1.32097   0.00000  1       21
siesta:     23.19013   2.66461   0.00000  1       22
siesta:     25.51813   1.32097   0.00000  1       23
siesta:     27.84627   2.66461   0.00000  1       24
siesta:      4.56380   5.35379   0.00000  1       25
siesta:      6.89193   6.69743   0.00000  1       26
siesta:      9.21994   5.35379   0.00000  1       27
siesta:     11.54807   6.69743   0.00000  1       28
siesta:     13.87608   5.35379   0.00000  1       29
siesta:     16.20421   6.69743   0.00000  1       30
siesta:     18.53411   5.35379   0.00000  1       31
siesta:     20.86224   6.69743   0.00000  1       32
siesta:     23.19025   5.35379   0.00000  1       33
siesta:     25.51838   6.69743   0.00000  1       34
siesta:      6.89205   9.38661   0.00000  1       35
siesta:      9.22019  10.73026   0.00000  1       36
siesta:     11.54820   9.38661   0.00000  1       37
siesta:     13.87633  10.73026   0.00000  1       38
siesta:     16.20434   9.38661   0.00000  1       39
siesta:     20.86237   9.38661   0.00000  1       40
siesta:      9.22031  13.41944   0.00000  1       41
siesta:     11.54845  14.76308   0.00000  1       42
siesta:     13.87645  13.41944   0.00000  1       43
siesta:     16.20459  14.76308   0.00000  1       44
siesta:     18.53448  13.41944   0.00000  1       45
siesta:     11.54857  17.45226   0.00000  1       46
siesta:     13.87670  18.79590   0.00000  1       47
siesta:     16.20471  17.45226   0.00000  1       48
siesta:     18.53284  18.79590   0.00000  1       49
siesta:     13.87683  21.48508   0.00000  1       50
siesta:     16.20496  22.82873   0.00000  1       51
siesta:     18.53486  21.48508   0.00000  1       52
siesta:     20.86299  22.82873   0.00000  1       53
siesta:     25.51851   9.38661   0.00000  1       54
siesta:     27.84664  10.73026   0.00000  1       55
siesta:     23.19063  13.41944   0.00000  1       56
siesta:     25.51876  14.76308   0.00000  1       57
siesta:     20.86274  17.45226   0.00000  1       58
siesta:     23.19088  18.79590   0.00000  1       59
siesta:     27.84677  13.41944   0.00000  1       60
siesta:     30.17490  14.76308   0.00000  1       61
siesta:     25.51888  17.45226   0.00000  1       62
siesta:     27.84702  18.79590   0.00000  1       63
siesta:     23.19100  21.48508   0.00000  1       64
siesta:     25.51913  22.82873   0.00000  1       65
siesta:     30.17503  17.45226   0.00000  1       66
siesta:     32.50316  18.79590   0.00000  1       67
siesta:     37.16131  21.48508   0.00000  1       68
siesta:     39.48945  22.82873   0.00000  1       69
siesta:     18.53247  10.73026   0.00000  2       70
siesta:     23.19050  10.73026   0.00000  2       71
siesta:     20.86262  14.76308   0.00000  2       72

siesta: System type = slab      

initatomlists: Number of atoms, orbitals, and projectors:     72   936  1152

siesta: ******************** Simulation parameters ****************************
siesta:
siesta: The following are some of the parameters of the simulation.
siesta: A complete list of the parameters used, including default values,
siesta: can be found in file out.fdf
siesta:
redata: Non-Collinear-spin run           =     F
redata: SpinPolarized (Up/Down) run      =     F
redata: Number of spin components        =     1
redata: Long output                      =     F
redata: Number of Atomic Species         =        2
redata: Charge density info will appear in .RHO file
redata: Write Mulliken Pop.              =     NO
redata: Mesh Cutoff                      =   200.0000  Ry
redata: Net charge of the system         =     0.0000 |e|
redata: Max. number of SCF Iter          =      500
redata: SCF convergence failure will abort job
redata: Performing Pulay mixing using    =    10 iterations
redata: Mix DM in first SCF step ?       =     F
redata: Write Pulay info on disk?        =     F
redata: Discard 1st Pulay DM after  kick =     F
redata: New DM Mixing Weight             =     0.0500
redata: New DM Occupancy tolerance       = 0.000000000001
redata: No kicks to SCF
redata: DM Mixing Weight for Kicks       =     0.5000
redata: DM Tolerance for SCF             =     0.000100
redata: Require Energy convergence for SCF =     F
redata: DM Energy tolerance for SCF      =     0.000100 eV
redata: Require Harris convergence for SCF =     F
redata: DM Harris energy tolerance for SCF =     0.000100 eV
redata: Using Saved Data (generic)   =     F
redata: Use continuation files for DM    =     T
redata: Neglect nonoverlap interactions  =     F
redata: Method of Calculation            =     Diagonalization
redata: Divide and Conquer               =     T
redata: Electronic Temperature           =     0.0019  Ry
redata: Fix the spin of the system       =     F
redata: Dynamics option                  =     Verlet MD run
redata: Initial MD time step             =        1
redata:   Final MD time step             =        1
redata: Length of MD time step           =     1.0000  fs
redata: Initial Temperature of MD run    =     0.0000  K
redata: Perform a MD quench              =     F
redata: ***********************************************************************
Total number of electrons:   285.000000
Total ionic charge:   285.000000

* ProcessorY, Blocksize:    3  24

k-point displ. along   1 input, could be:     0.50    0.00
k-point displ. along   2 input, could be:     0.50    0.00
 Kpoints in:          231 . Kpoints trimmed:          231

siesta: k-grid: Number of k-points =   231
siesta: k-grid: Cutoff (effective) =     5.000 Ang
siesta: k-grid: Supercell and displacements
siesta: k-grid:   21   0   0      0.500
siesta: k-grid:    0  21   0      0.500
siesta: k-grid:    0   0   1      0.000
Naive supercell factors:     2    2    2

superc: Internal auxiliary supercell:     2 x     2 x     2  =       8
superc: Number of atoms, orbitals, and projectors:    576   7488   9216

* Maximum dynamic memory allocated =     4 MB

siesta:                 ==============================
                            Begin MD step =      1
                        ==============================

superc: Internal auxiliary supercell:     2 x     2 x     2  =       8
superc: Number of atoms, orbitals, and projectors:    576   7488   9216

outcell: Unit cell vectors (Ang):
       14.785000    0.000000    0.000000
        7.393000   12.805052    0.000000
        0.000000    0.000000   10.000000

outcell: Cell vector modules (Ang)   :   14.785000   14.786000   10.000000
outcell: Cell angles (23,13,12) (deg):     90.0000     90.0000     60.0000
outcell: Cell volume (Ang**3)        :   1893.2269
New_DM. Step:     1
Initializing Density Matrix...

iodm: Reading Density Matrix from files

InitMesh: MESH =   120 x   120 x    90 =     1296000
InitMesh: Mesh cutoff (required, used) =   200.000   223.865 Ry

* Maximum dynamic memory allocated =   142 MB

stepf: Fermi-Dirac step function

siesta: Program's energy decomposition (eV):
siesta: Ebs     =     -3855.122128
siesta: Eions   =     18018.840937
siesta: Ena     =      3907.269015
siesta: Ekin    =      7690.851838
siesta: Enl     =      -759.539018
siesta: DEna    =      -304.786270
siesta: DUscf   =        28.953870
siesta: DUext   =         0.000000
siesta: Exc     =     -4050.583939
siesta: eta*DQ  =         0.000000
siesta: Emadel  =         0.000000
siesta: Emeta   =         0.000000
siesta: Emolmec =         0.000000
siesta: Ekinion =         0.000000
siesta: Eharris =    -11506.675445
siesta: Etot    =    -11506.675441
siesta: FreeEng =    -11506.675441

siesta: iscf   Eharris(eV)      E_KS(eV)   FreeEng(eV)   dDmax  Ef(eV)
siesta:    1   -11506.6754   -11506.6754   -11506.6754  0.0000 -5.1977
timer: Routine,Calls,Time,% = IterSCF        1    1184.983  98.95
elaps: Routine,Calls,Wall,% = IterSCF        1      98.990  98.95

siesta: E_KS(eV) =           -11506.6754

siesta: E_KS - E_eggbox =    -11506.6754

siesta: Atomic forces (eV/Ang):
----------------------------------------
   Tot    0.187940   -0.293973    0.000000
----------------------------------------
   Max    4.233341
   Res    0.710435    sqrt( Sum f_i^2 / 3N )
----------------------------------------
   Max    4.233341    constrained

Stress-tensor-Voigt (kbar):      -63.82      -62.89       -0.08       -0.47        0.00        0.00
(Free)E + p*V (eV/cell)   -11456.7568
Target enthalpy (eV/cell)   -11506.6999

siesta: Stress tensor (static) (eV/Ang**3):
        -0.039834   -0.000294    0.000000
        -0.000294   -0.039253    0.000000
         0.000000    0.000000   -0.000053

siesta: Pressure (static):         42.26562082  kBar

siesta: Stress tensor (total) (eV/Ang**3):
        -0.039834   -0.000294    0.000000
        -0.000294   -0.039253    0.000000
         0.000000    0.000000   -0.000053

siesta: Pressure (total):         42.26562082  kBar

siesta: Temp_ion =       0.000 K

* Maximum dynamic memory allocated =   238 MB

siesta: Program's energy decomposition (eV):
siesta: Ebs     =     -3855.122128
siesta: Eions   =     18018.840937
siesta: Ena     =      3907.269015
siesta: Ekin    =      7690.848431
siesta: Enl     =      -759.538327
siesta: DEna    =      -304.784491
siesta: DUscf   =        28.954173
siesta: DUext   =         0.000000
siesta: Exc     =     -4050.583306
siesta: eta*DQ  =         0.000000
siesta: Emadel  =         0.000000
siesta: Emeta   =         0.000000
siesta: Emolmec =         0.000000
siesta: Ekinion =         0.000000
siesta: Eharris =    -11506.675445
siesta: Etot    =    -11506.675442
siesta: FreeEng =    -11506.699863

siesta: Final energy (eV):
siesta:  Band Struct. =   -3855.122128
siesta:       Kinetic =    7690.848431
siesta:       Hartree =   22644.010518
siesta:    Ext. field =       0.000000
siesta:   Exch.-corr. =   -4050.583306
siesta:  Ion-electron =  -52352.041628
siesta:       Ion-ion =   14561.090542
siesta:       Ekinion =       0.000000
siesta:         Total =  -11506.675442

siesta: Atomic forces (eV/Ang):
siesta:      1   -0.134919   -0.101316    0.000000
siesta:      2    0.083294    0.047244    0.000000
siesta:      3    0.068850   -0.039457    0.000000
siesta:      4    0.035089    0.052088    0.000000
siesta:      5    0.006478    0.059396    0.000000
siesta:      6    0.051452   -0.015980    0.000000
siesta:      7    0.177360   -0.066907    0.000000
siesta:      8    0.012843   -0.167973    0.000000
siesta:      9    0.088399    0.119493    0.000000
siesta:     10    0.122427   -0.019056    0.000000
siesta:     11   -0.067105   -0.145520    0.000000
siesta:     12   -0.066408    0.043185    0.000000
siesta:     13    0.044718    0.165667    0.000000
siesta:     14   -0.147221    0.107361    0.000000
siesta:     15    0.009957    0.052866    0.000000
siesta:     16   -0.087672    0.048125    0.000000
siesta:     17    0.131551   -0.103444    0.000000
siesta:     18   -0.070771   -0.088637    0.000000
siesta:     19   -0.118711   -0.151792    0.000000
siesta:     20   -0.010641    0.337941    0.000000
siesta:     21   -0.029525   -0.115935    0.000000
siesta:     22    0.043462    0.341717    0.000000
siesta:     23    0.144003   -0.151871    0.000000
siesta:     24    0.079512   -0.090280    0.000000
siesta:     25    0.067669   -0.049308    0.000000
siesta:     26   -0.003440   -0.095651    0.000000
siesta:     27   -0.068031   -0.055086    0.000000
siesta:     28    0.072275    0.045183    0.000000
siesta:     29    0.086724   -0.145480    0.000000
siesta:     30   -0.619281    0.410821    0.000000
siesta:     31    0.040649   -0.602168    0.000000
siesta:     32   -0.000894    0.850665    0.000000
siesta:     33   -0.067040   -0.611054    0.000000
siesta:     34    0.641831    0.421112    0.000000
siesta:     35   -0.007775    0.133412    0.000000
siesta:     36   -0.113502   -0.012823    0.000000
siesta:     37   -0.071695    0.119356    0.000000
siesta:     38    0.035766   -0.765050    0.000000
siesta:     39   -3.349628   -1.954149    0.000000
siesta:     40   -0.028894   -4.233341    0.000000
siesta:     41   -0.177717   -0.060191    0.000000
siesta:     42    0.271118   -0.210339    0.000000
siesta:     43   -0.469826    0.351018    0.000000
siesta:     44    0.764469   -0.424625    0.000000
siesta:     45   -3.691095    2.101050    0.000000
siesta:     46   -0.082752    0.036578    0.000000
siesta:     47    0.318496   -0.127134    0.000000
siesta:     48   -0.544826    0.224198    0.000000
siesta:     49    0.722082    0.344536    0.000000
siesta:     50   -0.011869    0.162424    0.000000
siesta:     51   -0.003888    0.122884    0.000000
siesta:     52   -0.186512    0.000622    0.000000
siesta:     53   -0.007875   -0.067601    0.000000
siesta:     54    3.362005   -1.948920    0.000000
siesta:     55   -0.041085   -0.761471    0.000000
siesta:     56    3.674320    2.096195    0.000000
siesta:     57   -0.735467   -0.419293    0.000000
siesta:     58   -0.020521    3.865134    0.000000
siesta:     59   -0.688736    0.352803    0.000000
siesta:     60    0.485952    0.350424    0.000000
siesta:     61   -0.275740   -0.211173    0.000000
siesta:     62    0.559217    0.222065    0.000000
siesta:     63   -0.325139   -0.127882    0.000000
siesta:     64    0.160961   -0.006717    0.000000
siesta:     65    0.035636    0.127966    0.000000
siesta:     66    0.082494    0.032926    0.000000
siesta:     67   -0.030228   -0.014773    0.000000
siesta:     68   -0.093949   -0.035066    0.000000
siesta:     69    0.117680    0.111223    0.000000
siesta:     70   -0.392414   -0.246022    0.000000
siesta:     71    0.433887   -0.229627    0.000000
siesta:     72   -0.001894    0.521459    0.000000
siesta: ----------------------------------------
siesta:    Tot    0.187940   -0.293973    0.000000

siesta: Stress tensor (static) (eV/Ang**3):
siesta:    -0.039834   -0.000294    0.000000
siesta:    -0.000294   -0.039253    0.000000
siesta:     0.000000    0.000000   -0.000053

siesta: Cell volume =       1893.226895 Ang**3

siesta: Pressure (static):
siesta:                Solid            Molecule  Units
siesta:           0.00028731          0.00016101  Ry/Bohr**3
siesta:           0.02637984          0.01478367  eV/Ang**3
siesta:          42.26562082         23.68630928  kBar
(Free)E+ p_basis*V_orbitals  =      -11475.014383
(Free)Eharris+ p_basis*V_orbitals  =      -11475.014387

siesta: Electric dipole (a.u.)  =    0.000000    0.000000    0.000000
siesta: Electric dipole (Debye) =    0.000000    0.000000    0.000000

* Maximum dynamic memory allocated : Node    0 =   238 MB
* Maximum dynamic memory allocated : Node    1 =   150 MB
* Maximum dynamic memory allocated : Node    2 =   151 MB
* Maximum dynamic memory allocated : Node    3 =   227 MB
* Maximum dynamic memory allocated : Node    4 =   236 MB
* Maximum dynamic memory allocated : Node    5 =   146 MB
* Maximum dynamic memory allocated : Node    6 =   147 MB
* Maximum dynamic memory allocated : Node    7 =   229 MB
* Maximum dynamic memory allocated : Node    8 =   233 MB
* Maximum dynamic memory allocated : Node    9 =   144 MB
* Maximum dynamic memory allocated : Node   10 =   146 MB
* Maximum dynamic memory allocated : Node   11 =   227 MB

* Maximum memory occured during cdiag                         

timer: CPU execution times:
timer:  Routine       Calls   Time/call    Tot.time        %
timer:  siesta            1    1324.040    1324.040   100.00
timer:  Setup             1       3.342       3.342     0.25
timer:  bands             1       0.016       0.016     0.00
timer:  writewave         1       0.023       0.023     0.00
timer:  KSV_init          1       0.003       0.003     0.00
timer:  IterMD            1    1314.293    1314.293    99.26
timer:  hsparse           1       0.278       0.278     0.02
timer:  overlap           1       5.073       5.073     0.38
timer:  IterSCF           1    1184.983    1184.983    89.50
timer:  kinefsm           2       2.572       5.143     0.39
timer:  nlefsm            2      19.352      38.704     2.92
timer:  DHSCF             2      90.488     180.976    13.67
timer:  DHSCF1            1       1.189       1.189     0.09
timer:  DHSCF2            1      30.437      30.437     2.30
timer:  REORD            18       0.004       0.067     0.01
timer:  POISON            3       0.475       1.424     0.11
timer:  DHSCF3            2      62.877     125.754     9.50
timer:  rhoofd            2      12.752      25.504     1.93
timer:  cellXC            2       2.451       4.901     0.37
timer:  vmat              2      31.466      62.932     4.75
timer:  MolMec            2       0.000       0.001     0.00
timer:  diagon            1    1049.102    1049.102    79.23
timer:  cdiag            40      17.854     687.170    51.90
timer:  cdiag1           40       0.872      33.541     2.53
timer:  cdiag2           40       3.028     116.504     8.80
timer:  cdiag3           40      13.755     529.469    39.99
timer:  cdiag4           40       0.195       7.525     0.57
timer:  DHSCF4            1      23.548      23.548     1.78
timer:  dfscf             1      21.560      21.560     1.63
timer:  overfsm           1       0.283       0.283     0.02
timer:  optical           1       5.863       5.863     0.44
  

elaps: ELAPSED times:
elaps:  Routine       Calls   Time/call    Tot.time        %
elaps:  siesta            1     110.605     110.605   100.00
elaps:  Setup             1       0.279       0.279     0.25
elaps:  bands             1       0.001       0.001     0.00
elaps:  writewave         1       0.002       0.002     0.00
elaps:  KSV_init          1       0.000       0.000     0.00
elaps:  IterMD            1     109.791     109.791    99.26
elaps:  hsparse           1       0.028       0.028     0.03
elaps:  overlap           1       0.375       0.375     0.34
elaps:  IterSCF           1      98.990      98.990    89.50
elaps:  kinefsm           2       0.194       0.387     0.35
elaps:  nlefsm            2       1.872       3.743     3.38
elaps:  DHSCF             2       8.328      16.657    15.06
elaps:  DHSCF1            1       0.101       0.101     0.09
elaps:  DHSCF2            1       2.541       2.541     2.30
elaps:  REORD            18       0.000       0.005     0.00
elaps:  POISON            3       0.040       0.120     0.11
elaps:  DHSCF3            2       5.252      10.504     9.50
elaps:  rhoofd            2       1.853       3.706     3.35
elaps:  cellXC            2       0.204       0.409     0.37
elaps:  vmat              2       2.629       5.258     4.75
elaps:  MolMec            2       0.000       0.000     0.00
elaps:  diagon            1      87.640      87.640    79.24
elaps:  cdiag            40       1.471      58.848    53.20
elaps:  cdiag1           40       0.069       2.757     2.49
elaps:  cdiag2           40       0.239       9.565     8.65
elaps:  cdiag3           40       1.145      45.800    41.41
elaps:  cdiag4           40       0.018       0.716     0.65
elaps:  DHSCF4            1       3.506       3.506     3.17
elaps:  dfscf             1       3.266       3.266     2.95
elaps:  overfsm           1       0.029       0.029     0.03
elaps:  optical           1       0.000       0.000     0.00
  
>> End of run:   6-APR-2016  14:06:27
