Siesta Version:                                        siesta-3.2-pl-3
Architecture  : x86_64-unknown-linux-gnu--unknown
Compiler flags: mpiifort -g -O2 -fPIC -xSSE4.1 -fp-model source -shared-intel 
PARALLEL version

* Running on   12 nodes in parallel
>> Start of run:   7-MAY-2016  16:39:49

                           ***********************       
                           *  WELCOME TO SIESTA  *       
                           ***********************       

reinit: Reading from standard input
************************** Dump of input data file ****************************
#(1) General system descriptors
SystemName            GRP_doping    # Descriptive name of the system
SystemLabel           GRP_doping    # Short name for naming files
%include STRUCT.fdf
%include KPT.fdf
%include BASIS.fdf
#%include TS.fdf # for transiesta calculation
#(4) DFT, Grid, SCF
XC.functional         GGA           # LDA or GGA (default = LDA)
XC.authors            PBE           # CA (Ceperley-Aldr) = PZ
                                    #    (Perdew-Zunger) - LDA - Default
                                    # PW92 (Perdew-Wang-92) - LDA
                                    # PBE (Perdew-Burke-Ernzerhof) - GGA
MeshCutoff            200.000000    Ry      # Default: 50.0 Ry ~ 0.444 Bohr
                                    #         100.0 Ry ~ 0.314 Bohr
MaxSCFIterations      500           # Default: 50
DM.MixingWeight       0.05          # Default: 0.25
DM.NumberPulay        10            # Default: 0
DM.PulayOnFile        F             # SystemLabel.P1, SystemLabel.P2
DM.Tolerance          1.d-4         # Default: 1.d-4
DM.UseSaveDM          .true.        # because of the bug
SCFMustConverge       .true.
NeglNonOverlapInt     F             # Default: F
#(5) Eigenvalue problem: order-N or diagonalization
SolutionMethod        Diagon        # or Transiesta
ElectronicTemperature 300.0 K       # Default: 300.0 K
#(6) Molecular dynamics and relaxations
#MD.TypeOfRun          CG            # Type of dynamics:
#MD.VariableCell       F
#MD.NumCGsteps         0           # 0 for single-point / 100 for gopt
#MD.MaxCGDispl         0.2 Bohr      # Default: 0.2 Bohr
#MD.MaxForceTol        0.02 eV/Ang   # Default: 0.04 eV/Ang
#MD.MaxStressTol       1.0 GPa       # Default: 1.0 GPa
# Geometry Constraints
#%block GeometryConstraints
#	position from 1 to 44
#%endblock GeometryConstraints
BandLinesScale   pi/a
%block BandLines
 1   0.00000000  0.00000000  0.00000000
50   0.00000000  0.07809418  0.00000000
50   0.04509075  0.07809242  0.00000000
20   0.00000000  0.00000000  0.00000000
%endblock BandLines
************************** End of input data file *****************************

reinit: -----------------------------------------------------------------------
reinit: System Name: GRP_doping
reinit: -----------------------------------------------------------------------
reinit: System Label: GRP_doping                                                  
reinit: -----------------------------------------------------------------------

initatom: Reading input for the pseudopotentials and atomic orbitals ----------
 Species number:            1  Label: N Atomic number:           7
 Species number:            2  Label: C Atomic number:           6
Ground state valence configuration:   2s02  2p03
Reading pseudopotential information in formatted form from N.psf

Valence configuration for pseudopotential generation:
2s( 2.00) rc: 1.48
2p( 3.00) rc: 1.48
3d( 0.00) rc: 1.48
4f( 0.00) rc: 1.48
Ground state valence configuration:   2s02  2p02
Reading pseudopotential information in formatted form from C.psf

Valence configuration for pseudopotential generation:
2s( 2.00) rc: 1.54
2p( 2.00) rc: 1.54
3d( 0.00) rc: 1.54
4f( 0.00) rc: 1.54
For N, standard SIESTA heuristics set lmxkb to 3
 (one more than the basis l, including polarization orbitals).
Use PS.lmax or PS.KBprojectors blocks to override.
For C, standard SIESTA heuristics set lmxkb to 3
 (one more than the basis l, including polarization orbitals).
Use PS.lmax or PS.KBprojectors blocks to override.

<basis_specs>
===============================================================================
N                    Z=   7    Mass=  14.010        Charge= 0.17977+309
Lmxo=1 Lmxkb= 3    BasisType=split      Semic=F
L=0  Nsemic=0  Cnfigmx=2
          n=1  nzeta=2  polorb=0
            splnorm:   0.15000    
               vcte:    0.0000    
               rinn:    0.0000    
                rcs:    0.0000      0.0000    
            lambdas:    1.0000      1.0000    
L=1  Nsemic=0  Cnfigmx=2
          n=1  nzeta=2  polorb=1
            splnorm:   0.15000    
               vcte:    0.0000    
               rinn:    0.0000    
                rcs:    0.0000      0.0000    
            lambdas:    1.0000      1.0000    
-------------------------------------------------------------------------------
L=0  Nkbl=1  erefs: 0.17977+309
L=1  Nkbl=1  erefs: 0.17977+309
L=2  Nkbl=1  erefs: 0.17977+309
L=3  Nkbl=1  erefs: 0.17977+309
===============================================================================
</basis_specs>

atom: Called for N                     (Z =   7)

read_vps: Pseudopotential generation method:
read_vps: ATM3      Troullier-Martins                       
Total valence charge:    5.00000

read_vps: Pseudopotential includes a core correction:
read_vps: Pseudo-core for xc-correction

xc_check: Exchange-correlation functional:
xc_check: GGA Perdew, Burke & Ernzerhof 1996
V l=0 = -2*Zval/r beyond r=  1.4606
V l=1 = -2*Zval/r beyond r=  1.4606
V l=2 = -2*Zval/r beyond r=  1.4606
V l=3 = -2*Zval/r beyond r=  1.4606
All V_l potentials equal beyond r=  1.4606
This should be close to max(r_c) in ps generation
All pots = -2*Zval/r beyond r=  1.4606

VLOCAL1: 99.0% of the norm of Vloc inside     20.347 Ry
VLOCAL1: 99.9% of the norm of Vloc inside     46.372 Ry
atom: Maximum radius for 4*pi*r*r*local-pseudopot. charge    1.76189
atom: Maximum radius for r*vlocal+2*Zval:    1.53550
GHOST: No ghost state for L =  0
GHOST: No ghost state for L =  1
GHOST: No ghost state for L =  2
GHOST: No ghost state for L =  3

KBgen: Kleinman-Bylander projectors: 
   l= 0   rc=  1.634559   el= -1.363963   Ekb=  5.296955   kbcos=  0.335621
   l= 1   rc=  1.614250   el= -0.521451   Ekb= -5.259161   kbcos= -0.433408
   l= 2   rc=  1.718383   el=  0.001991   Ekb= -1.271464   kbcos= -0.007566
   l= 3   rc=  1.761893   el=  0.003093   Ekb= -0.494769   kbcos= -0.001015

KBgen: Total number of  Kleinman-Bylander projectors:   16
atom: -------------------------------------------------------------------------

atom: SANKEY-TYPE ORBITALS:
atom: Selected multiple-zeta basis: split     

SPLIT: Orbitals with angular momentum L= 0

SPLIT: Basis orbitals for state 2s

SPLIT: PAO cut-off radius determined from an
SPLIT: energy shift=  0.007350 Ry

   izeta = 1
                 lambda =    1.000000
                     rc =    4.071465
                 energy =   -1.356470
                kinetic =    1.176977
    potential(screened) =   -2.533447
       potential(ionic) =   -8.057990

   izeta = 2
                 rmatch =    2.905100
              splitnorm =    0.150000
                 energy =   -1.158343
                kinetic =    1.813009
    potential(screened) =   -2.971352
       potential(ionic) =   -8.901931

SPLIT: Orbitals with angular momentum L= 1

SPLIT: Basis orbitals for state 2p

SPLIT: PAO cut-off radius determined from an
SPLIT: energy shift=  0.007350 Ry

   izeta = 1
                 lambda =    1.000000
                     rc =    4.972977
                 energy =   -0.513884
                kinetic =    3.441732
    potential(screened) =   -3.955616
       potential(ionic) =   -9.287901

   izeta = 2
                 rmatch =    3.054066
              splitnorm =    0.150000
                 energy =   -0.318226
                kinetic =    5.125348
    potential(screened) =   -5.443573
       potential(ionic) =  -11.380999

POLgen: Perturbative polarization orbital with L=  2

POLgen: Polarization orbital for state 2p

   izeta = 1
                     rc =    4.972977
                 energy =    1.607437
                kinetic =    3.268125
    potential(screened) =   -1.660688
       potential(ionic) =   -5.973652
atom: Total number of Sankey-type orbitals: 13

atm_pop: Valence configuration (for local Pseudopot. screening):
 2s( 2.00)                                                            
 2p( 3.00)                                                            
Vna: chval, zval:    5.00000   5.00000

Vna:  Cut-off radius for the neutral-atom potential:   4.972977
comcore: Pseudo-core radius Rcore=  1.554824

atom: _________________________________________________________________________

<basis_specs>
===============================================================================
C                    Z=   6    Mass=  12.010        Charge= 0.17977+309
Lmxo=1 Lmxkb= 3    BasisType=split      Semic=F
L=0  Nsemic=0  Cnfigmx=2
          n=1  nzeta=2  polorb=0
            splnorm:   0.15000    
               vcte:    0.0000    
               rinn:    0.0000    
                rcs:    0.0000      0.0000    
            lambdas:    1.0000      1.0000    
L=1  Nsemic=0  Cnfigmx=2
          n=1  nzeta=2  polorb=1
            splnorm:   0.15000    
               vcte:    0.0000    
               rinn:    0.0000    
                rcs:    0.0000      0.0000    
            lambdas:    1.0000      1.0000    
-------------------------------------------------------------------------------
L=0  Nkbl=1  erefs: 0.17977+309
L=1  Nkbl=1  erefs: 0.17977+309
L=2  Nkbl=1  erefs: 0.17977+309
L=3  Nkbl=1  erefs: 0.17977+309
===============================================================================
</basis_specs>

atom: Called for C                     (Z =   6)

read_vps: Pseudopotential generation method:
read_vps: ATM3      Troullier-Martins                       
Total valence charge:    4.00000

read_vps: Pseudopotential includes a core correction:
read_vps: Pseudo-core for xc-correction

xc_check: Exchange-correlation functional:
xc_check: GGA Perdew, Burke & Ernzerhof 1996
V l=0 = -2*Zval/r beyond r=  1.5227
V l=1 = -2*Zval/r beyond r=  1.5227
V l=2 = -2*Zval/r beyond r=  1.5227
V l=3 = -2*Zval/r beyond r=  1.5038
All V_l potentials equal beyond r=  1.5227
This should be close to max(r_c) in ps generation
All pots = -2*Zval/r beyond r=  1.5227

VLOCAL1: 99.0% of the norm of Vloc inside     18.722 Ry
VLOCAL1: 99.9% of the norm of Vloc inside     42.668 Ry
atom: Maximum radius for 4*pi*r*r*local-pseudopot. charge    1.83678
atom: Maximum radius for r*vlocal+2*Zval:    1.58088
GHOST: No ghost state for L =  0
GHOST: No ghost state for L =  1
GHOST: No ghost state for L =  2
GHOST: No ghost state for L =  3

KBgen: Kleinman-Bylander projectors: 
   l= 0   rc=  1.704034   el= -1.009801   Ekb=  5.335044   kbcos=  0.316824
   l= 1   rc=  1.704034   el= -0.388707   Ekb= -3.785862   kbcos= -0.366464
   l= 2   rc=  1.791422   el=  0.001971   Ekb= -0.970471   kbcos= -0.009212
   l= 3   rc=  1.859892   el=  0.003065   Ekb= -0.399525   kbcos= -0.001223

KBgen: Total number of  Kleinman-Bylander projectors:   16
atom: -------------------------------------------------------------------------

atom: SANKEY-TYPE ORBITALS:
atom: Selected multiple-zeta basis: split     

SPLIT: Orbitals with angular momentum L= 0

SPLIT: Basis orbitals for state 2s

SPLIT: PAO cut-off radius determined from an
SPLIT: energy shift=  0.007350 Ry

   izeta = 1
                 lambda =    1.000000
                     rc =    4.632753
                 energy =   -1.002270
                kinetic =    0.855760
    potential(screened) =   -1.858031
       potential(ionic) =   -5.417575

   izeta = 2
                 rmatch =    3.431921
              splitnorm =    0.150000
                 energy =   -0.867111
                kinetic =    1.300804
    potential(screened) =   -2.167915
       potential(ionic) =   -5.962684

SPLIT: Orbitals with angular momentum L= 1

SPLIT: Basis orbitals for state 2p

SPLIT: PAO cut-off radius determined from an
SPLIT: energy shift=  0.007350 Ry

   izeta = 1
                 lambda =    1.000000
                     rc =    5.658549
                 energy =   -0.381140
                kinetic =    2.399701
    potential(screened) =   -2.780841
       potential(ionic) =   -6.206085

   izeta = 2
                 rmatch =    3.653288
              splitnorm =    0.150000
                 energy =   -0.249149
                kinetic =    3.542762
    potential(screened) =   -3.791911
       potential(ionic) =   -7.581078

POLgen: Perturbative polarization orbital with L=  2

POLgen: Polarization orbital for state 2p

   izeta = 1
                     rc =    5.658549
                 energy =    1.109913
                kinetic =    2.304789
    potential(screened) =   -1.194876
       potential(ionic) =   -4.013592
atom: Total number of Sankey-type orbitals: 13

atm_pop: Valence configuration (for local Pseudopot. screening):
 2s( 2.00)                                                            
 2p( 2.00)                                                            
Vna: chval, zval:    4.00000   4.00000

Vna:  Cut-off radius for the neutral-atom potential:   5.658549
comcore: Pseudo-core radius Rcore=  1.791422

atom: _________________________________________________________________________

prinput: Basis input ----------------------------------------------------------

PAO.BasisType split     

%block ChemicalSpeciesLabel
    1    7 N                       # Species index, atomic number, species label
    2    6 C                       # Species index, atomic number, species label
%endblock ChemicalSpeciesLabel

%block PAO.Basis                 # Define Basis set
N                     2                    # Species label, number of l-shells
 n=2   0   2                         # n, l, Nzeta 
   4.071      2.905   
   1.000      1.000   
 n=2   1   2 P   1                   # n, l, Nzeta, Polarization, NzetaPol
   4.973      3.054   
   1.000      1.000   
C                     2                    # Species label, number of l-shells
 n=2   0   2                         # n, l, Nzeta 
   4.633      3.432   
   1.000      1.000   
 n=2   1   2 P   1                   # n, l, Nzeta, Polarization, NzetaPol
   5.659      3.653   
   1.000      1.000   
%endblock PAO.Basis

prinput: ----------------------------------------------------------------------

coor:   Atomic-coordinates input format  =     Fractional

siesta: Atomic coordinates (Bohr) and species
siesta:      2.30256  41.57980   0.00000  1        1
siesta:      4.63094  13.34970   0.00000  1        2
siesta:      6.95932  17.38257   0.00000  1        3
siesta:      2.30256  14.69411   0.00000  1        4
siesta:      4.63094  18.72698   0.00000  1        5
siesta:      4.63094  21.41544   0.00000  1        6
siesta:      6.95932  25.44831   0.00000  1        7
siesta:     -2.35420  17.38257   0.00000  1        8
siesta:     -0.02582  21.41544   0.00000  1        9
siesta:      4.63094  26.79272   0.00000  1       10
siesta:     -0.02582  26.79272   0.00000  1       11
siesta:     -4.68258  26.79272   0.00000  1       12
siesta:     -2.35420  30.82560   0.00000  1       13
siesta:     -7.01096  33.51406   0.00000  1       14
siesta:     -0.02582  34.85847   0.00000  1       15
siesta:     -0.02582   2.59549   0.00000  2       16
siesta:     -0.02582   5.28395   0.00000  2       17
siesta:     -2.35420  38.89134   0.00000  2       18
siesta:     -2.35420  41.57980   0.00000  2       19
siesta:      2.30256  38.89134   0.00000  2       20
siesta:      4.63094  34.85847   0.00000  2       21
siesta:      4.63094  37.54693   0.00000  2       22
siesta:      6.95932  30.82560   0.00000  2       23
siesta:      6.95932  33.51406   0.00000  2       24
siesta:      9.28770  26.79272   0.00000  2       25
siesta:      9.28770  29.48119   0.00000  2       26
siesta:     -4.68258  34.85847   0.00000  2       27
siesta:     -4.68258  37.54693   0.00000  2       28
siesta:      2.30256   6.62836   0.00000  2       29
siesta:      2.30256   9.31683   0.00000  2       30
siesta:      4.63094  10.66124   0.00000  2       31
siesta:      6.95932  14.69411   0.00000  2       32
siesta:      9.28770  18.72698   0.00000  2       33
siesta:      9.28770  21.41544   0.00000  2       34
siesta:     11.61608  22.75985   0.00000  2       35
siesta:     11.61608  25.44831   0.00000  2       36
siesta:     -2.35420   6.62836   0.00000  2       37
siesta:     -2.35420   9.31683   0.00000  2       38
siesta:     -0.02582  10.66124   0.00000  2       39
siesta:     -0.02582  13.34970   0.00000  2       40
siesta:      2.30256  17.38257   0.00000  2       41
siesta:      6.95932  22.75985   0.00000  2       42
siesta:     -4.68258  10.66124   0.00000  2       43
siesta:     -4.68258  13.34970   0.00000  2       44
siesta:     -2.35420  14.69411   0.00000  2       45
siesta:     -0.02582  18.72698   0.00000  2       46
siesta:      2.30256  22.75985   0.00000  2       47
siesta:      2.30256  25.44831   0.00000  2       48
siesta:     -7.01096  14.69411   0.00000  2       49
siesta:     -7.01096  17.38257   0.00000  2       50
siesta:     -4.68258  18.72698   0.00000  2       51
siesta:     -4.68258  21.41544   0.00000  2       52
siesta:     -2.35420  22.75985   0.00000  2       53
siesta:     -2.35420  25.44831   0.00000  2       54
siesta:     -9.33934  18.72698   0.00000  2       55
siesta:     -9.33934  21.41544   0.00000  2       56
siesta:     -7.01096  22.75985   0.00000  2       57
siesta:     -7.01096  25.44831   0.00000  2       58
siesta:    -11.66772  22.75985   0.00000  2       59
siesta:    -11.66772  25.44831   0.00000  2       60
siesta:     -9.33934  26.79272   0.00000  2       61
siesta:     -9.33934  29.48119   0.00000  2       62
siesta:      4.63094  29.48119   0.00000  2       63
siesta:     -0.02582  29.48119   0.00000  2       64
siesta:     -4.68258  29.48119   0.00000  2       65
siesta:      2.30256  30.82560   0.00000  2       66
siesta:      2.30256  33.51406   0.00000  2       67
siesta:     -2.35420  33.51406   0.00000  2       68
siesta:     -7.01096  30.82560   0.00000  2       69
siesta:     -0.02582  37.54693   0.00000  2       70
siesta:     -0.02582  42.92421   0.00000  2       71
siesta:     -0.02582  45.61267   0.00000  2       72

siesta: System type = slab      

initatomlists: Number of atoms, orbitals, and projectors:     72   936  1152

siesta: ******************** Simulation parameters ****************************
siesta:
siesta: The following are some of the parameters of the simulation.
siesta: A complete list of the parameters used, including default values,
siesta: can be found in file out.fdf
siesta:
redata: Non-Collinear-spin run           =     F
redata: SpinPolarized (Up/Down) run      =     F
redata: Number of spin components        =     1
redata: Long output                      =     F
redata: Number of Atomic Species         =        2
redata: Charge density info will appear in .RHO file
redata: Write Mulliken Pop.              =     NO
redata: Mesh Cutoff                      =   200.0000  Ry
redata: Net charge of the system         =     0.0000 |e|
redata: Max. number of SCF Iter          =      500
redata: SCF convergence failure will abort job
redata: Performing Pulay mixing using    =    10 iterations
redata: Mix DM in first SCF step ?       =     F
redata: Write Pulay info on disk?        =     F
redata: Discard 1st Pulay DM after  kick =     F
redata: New DM Mixing Weight             =     0.0500
redata: New DM Occupancy tolerance       = 0.000000000001
redata: No kicks to SCF
redata: DM Mixing Weight for Kicks       =     0.5000
redata: DM Tolerance for SCF             =     0.000100
redata: Require Energy convergence for SCF =     F
redata: DM Energy tolerance for SCF      =     0.000100 eV
redata: Require Harris convergence for SCF =     F
redata: DM Harris energy tolerance for SCF =     0.000100 eV
redata: Using Saved Data (generic)   =     F
redata: Use continuation files for DM    =     T
redata: Neglect nonoverlap interactions  =     F
redata: Method of Calculation            =     Diagonalization
redata: Divide and Conquer               =     T
redata: Electronic Temperature           =     0.0019  Ry
redata: Fix the spin of the system       =     F
redata: Dynamics option                  =     Verlet MD run
redata: Initial MD time step             =        1
redata:   Final MD time step             =        1
redata: Length of MD time step           =     1.0000  fs
redata: Initial Temperature of MD run    =     0.0000  K
redata: Perform a MD quench              =     F
redata: ***********************************************************************
Total number of electrons:   303.000000
Total ionic charge:   303.000000

* ProcessorY, Blocksize:    3  24

k-point displ. along   1 input, could be:     0.50    0.00
k-point displ. along   2 input, could be:     0.50    0.00
 Kpoints in:          231 . Kpoints trimmed:          231

siesta: k-grid: Number of k-points =   231
siesta: k-grid: Cutoff (effective) =     5.000 Ang
siesta: k-grid: Supercell and displacements
siesta: k-grid:   21   0   0      0.500
siesta: k-grid:    0  21   0      0.500
siesta: k-grid:    0   0   1      0.000
Naive supercell factors:     2    2    2

superc: Internal auxiliary supercell:     2 x     2 x     2  =       8
superc: Number of atoms, orbitals, and projectors:    576   7488   9216

* Maximum dynamic memory allocated =     4 MB

siesta:                 ==============================
                            Begin MD step =      1
                        ==============================

superc: Internal auxiliary supercell:     2 x     2 x     2  =       8
superc: Number of atoms, orbitals, and projectors:    576   7488   9216

outcell: Unit cell vectors (Ang):
       12.804619    7.392750    0.000000
        0.000000   14.785500    0.000000
        0.000000    0.000000   10.000000

outcell: Cell vector modules (Ang)   :   14.785500   14.785500   10.000000
outcell: Cell angles (23,13,12) (deg):     90.0000     90.0000     60.0000
outcell: Cell volume (Ang**3)        :   1893.2269
New_DM. Step:     1
Initializing Density Matrix...

InitMesh: MESH =   120 x   120 x    90 =     1296000
InitMesh: Mesh cutoff (required, used) =   200.000   223.865 Ry

* Maximum dynamic memory allocated =   135 MB

stepf: Fermi-Dirac step function

siesta: Program's energy decomposition (eV):
siesta: Ebs     =     -6141.223670
siesta: Eions   =     20814.213734
siesta: Ena     =      4872.417200
siesta: Ekin    =      7637.016727
siesta: Enl     =       188.276858
siesta: DEna    =        -0.000015
siesta: DUscf   =         0.000000
siesta: DUext   =         0.000000
siesta: Exc     =     -4543.672025
siesta: eta*DQ  =         0.000000
siesta: Emadel  =         0.000000
siesta: Emeta   =         0.000000
siesta: Emolmec =         0.000000
siesta: Ekinion =         0.000000
siesta: Eharris =    -12294.002115
siesta: Etot    =    -12660.174987
siesta: FreeEng =    -12660.174987

siesta: iscf   Eharris(eV)      E_KS(eV)   FreeEng(eV)   dDmax  Ef(eV)
siesta:    1   -12294.0021   -12660.1750   -12660.1750  7.9838 -6.8967
timer: Routine,Calls,Time,% = IterSCF        1    3018.827  99.60
elaps: Routine,Calls,Wall,% = IterSCF        1     252.168  99.60
siesta:    2   -16596.1855   -11658.5066   -11658.5875 17.0080 -4.9604
siesta:    3   -12231.4393   -12443.4998   -12443.5386  2.6669 -4.5893
siesta:    4   -12196.8934   -12325.0465   -12325.1054  1.2321 -4.0719
siesta:    5   -12154.3909   -12260.7953   -12260.8299  0.9206 -3.8285
siesta:    6   -12145.6031   -12226.6305   -12226.6778  0.9357 -3.6865
siesta:    7   -12139.9823   -12208.4353   -12208.5112  0.6713 -3.7344
siesta:    8   -12138.9440   -12200.8894   -12200.9309  0.6570 -3.7321
siesta:    9   -12137.4690   -12191.5446   -12191.6056  0.5788 -3.7214
siesta:   10   -12136.2807   -12161.1859   -12161.2507  0.3804 -3.7173
siesta:   11   -12137.1348   -12135.4567   -12135.5126  0.2285 -3.7025
siesta:   12   -12136.3530   -12125.5272   -12125.5817  0.1990 -3.6708
siesta:   13   -12135.9894   -12120.8936   -12120.9626  0.1662 -3.6609
siesta:   14   -12135.7180   -12121.0543   -12121.1310  0.1451 -3.6504
siesta:   15   -12135.5649   -12120.6352   -12120.6953  0.1205 -3.6602
siesta:   16   -12135.4222   -12123.5539   -12123.6273  0.0923 -3.6713
siesta:   17   -12135.3073   -12127.6276   -12127.7002  0.0525 -3.7100
siesta:   18   -12135.2907   -12130.0636   -12130.1408  0.0305 -3.7180
siesta:   19   -12135.2841   -12131.9302   -12132.0074  0.0275 -3.7274
siesta:   20   -12135.2745   -12133.8991   -12133.9777  0.0175 -3.7272
siesta:   21   -12135.2702   -12134.9948   -12135.0742  0.0147 -3.7226
siesta:   22   -12135.2670   -12135.3995   -12135.4779  0.0190 -3.7174
siesta:   23   -12135.2670   -12135.9178   -12135.9968  0.0187 -3.7142
siesta:   24   -12135.2658   -12136.3818   -12136.4603  0.0138 -3.7128
siesta:   25   -12135.2663   -12136.4824   -12136.5614  0.0093 -3.7120
siesta:   26   -12135.2655   -12136.3279   -12136.4062  0.0055 -3.7095
siesta:   27   -12135.2660   -12135.8133   -12135.8924  0.0023 -3.7083
siesta:   28   -12135.2658   -12135.7166   -12135.7949  0.0019 -3.7082
siesta:   29   -12135.2656   -12135.5602   -12135.6386  0.0013 -3.7083
siesta:   30   -12135.2656   -12135.4990   -12135.5775  0.0010 -3.7082
siesta:   31   -12135.2656   -12135.4726   -12135.5511  0.0008 -3.7083
siesta:   32   -12135.2656   -12135.4138   -12135.4923  0.0004 -3.7084
siesta:   33   -12135.2656   -12135.3291   -12135.4076  0.0003 -3.7088
siesta:   34   -12135.2656   -12135.3108   -12135.3894  0.0002 -3.7088
siesta:   35   -12135.2656   -12135.3058   -12135.3843  0.0001 -3.7088
siesta:   36   -12135.2656   -12135.2956   -12135.3741  0.0001 -3.7088
siesta:   37   -12135.2656   -12135.2846   -12135.3631  0.0001 -3.7088

siesta: E_KS(eV) =           -12135.2746

siesta: E_KS - E_eggbox =    -12135.2746

siesta: Atomic forces (eV/Ang):
----------------------------------------
   Tot   -0.269886   -0.268784    0.000000
----------------------------------------
   Max  779.288631
   Res  169.554040    sqrt( Sum f_i^2 / 3N )
----------------------------------------
   Max  779.288631    constrained

Stress-tensor-Voigt (kbar):     -671.11    -3003.61       -0.08       12.90        0.00        0.00
(Free)E + p*V (eV/cell)   -10687.9142
Target enthalpy (eV/cell)   -12135.3531

siesta: Stress tensor (static) (eV/Ang**3):
        -0.418868    0.008049    0.000000
         0.008049   -1.874687    0.000000
         0.000000    0.000000   -0.000051

siesta: Pressure (static):       1224.93389493  kBar

siesta: Stress tensor (total) (eV/Ang**3):
        -0.418868    0.008049    0.000000
         0.008049   -1.874687    0.000000
         0.000000    0.000000   -0.000051

siesta: Pressure (total):       1224.93389493  kBar

siesta: Temp_ion =       0.000 K

* Maximum dynamic memory allocated =   148 MB
Computing bands...

siesta: Program's energy decomposition (eV):
siesta: Ebs     =     -4922.388229
siesta: Eions   =     20814.213734
siesta: Ena     =      4872.417200
siesta: Ekin    =     10653.797681
siesta: Enl     =     -1470.231332
siesta: DEna    =      -768.851993
siesta: DUscf   =       103.224523
siesta: DUext   =         0.000000
siesta: Exc     =     -4711.416928
siesta: eta*DQ  =         0.000000
siesta: Emadel  =         0.000000
siesta: Emeta   =         0.000000
siesta: Emolmec =         0.000000
siesta: Ekinion =         0.000000
siesta: Eharris =    -12135.265589
siesta: Etot    =    -12135.274583
siesta: FreeEng =    -12135.353103

siesta: Final energy (eV):
siesta:  Band Struct. =   -4922.388229
siesta:       Kinetic =   10653.797681
siesta:       Hartree =   34684.014151
siesta:    Ext. field =       0.000000
siesta:   Exch.-corr. =   -4711.416928
siesta:  Ion-electron =  -79590.183515
siesta:       Ion-ion =   26828.514029
siesta:       Ekinion =       0.000000
siesta:         Total =  -12135.274583

siesta: Atomic forces (eV/Ang):
siesta:      1   26.683513 -745.582750    0.000000
siesta:      2   36.043516  -11.744699    0.000000
siesta:      3    2.884769   -1.682243    0.000000
siesta:      4   -2.642555  779.288631    0.000000
siesta:      5   -2.725786    1.942556    0.000000
siesta:      6    0.051226    1.672433    0.000000
siesta:      7   -0.294604   -2.544973    0.000000
siesta:      8  -28.507616   -4.075341    0.000000
siesta:      9    0.777162   -0.969644    0.000000
siesta:     10   -1.189096    1.179697    0.000000
siesta:     11    0.511218    2.032980    0.000000
siesta:     12    0.971466    0.789429    0.000000
siesta:     13  -29.284692    5.052098    0.000000
siesta:     14    3.020511   -0.777298    0.000000
siesta:     15   -2.282545  123.832836    0.000000
siesta:     16  -11.594447  546.111145    0.000000
siesta:     17   -1.012561 -120.812216    0.000000
siesta:     18    1.276689  126.275651    0.000000
siesta:     19  -10.183002 -553.150938    0.000000
siesta:     20    1.533634  110.407676    0.000000
siesta:     21   26.251955    6.172270    0.000000
siesta:     22   35.706008 -550.073386    0.000000
siesta:     23    1.843061    0.262794    0.000000
siesta:     24   -2.811057    1.039567    0.000000
siesta:     25    1.232010    2.472698    0.000000
siesta:     26   -0.833306   -0.288331    0.000000
siesta:     27  -26.267521    7.686801    0.000000
siesta:     28  -35.907633 -550.337951    0.000000
siesta:     29    6.424385  546.188249    0.000000
siesta:     30   -1.621364 -123.591889    0.000000
siesta:     31   23.565168  550.771284    0.000000
siesta:     32   -1.090139    2.617039    0.000000
siesta:     33   -1.174054   -1.451889    0.000000
siesta:     34   -0.000128   -2.048845    0.000000
siesta:     35   -0.008180    6.531104    0.000000
siesta:     36   -0.493112   -6.489922    0.000000
siesta:     37   -8.958019  544.566351    0.000000
siesta:     38    2.729943 -124.267685    0.000000
siesta:     39   11.137473  548.595127    0.000000
siesta:     40   -3.860691 -132.356963    0.000000
siesta:     41   23.316780   -5.074692    0.000000
siesta:     42   -0.945445    1.240367    0.000000
siesta:     43  -33.335579  549.401730    0.000000
siesta:     44  -26.711879   -5.798941    0.000000
siesta:     45  -12.159669  559.041566    0.000000
siesta:     46    8.471510  579.948493    0.000000
siesta:     47    0.518925   -0.088769    0.000000
siesta:     48    1.204235   -1.049654    0.000000
siesta:     49    2.514142   -1.768820    0.000000
siesta:     50   -1.400892   -0.025941    0.000000
siesta:     51    0.596907    3.352870    0.000000
siesta:     52    0.826443   -1.225783    0.000000
siesta:     53    0.090772    1.122665    0.000000
siesta:     54   -0.598077   -0.767729    0.000000
siesta:     55    1.105144   -0.217307    0.000000
siesta:     56   -1.940395   -2.259881    0.000000
siesta:     57    0.424425    1.345010    0.000000
siesta:     58    0.606410   -0.884144    0.000000
siesta:     59    0.205151    7.276854    0.000000
siesta:     60   -0.012892   -7.223775    0.000000
siesta:     61   -1.059525    2.535931    0.000000
siesta:     62    0.852197    0.532723    0.000000
siesta:     63   -1.388384   -3.176734    0.000000
siesta:     64   12.881722 -573.288405    0.000000
siesta:     65    0.758605   -3.188332    0.000000
siesta:     66   25.030744    4.745491    0.000000
siesta:     67   23.128832 -563.742456    0.000000
siesta:     68  -14.663678 -556.624818    0.000000
siesta:     69   -0.498590    2.049795    0.000000
siesta:     70   -9.425758 -543.110619    0.000000
siesta:     71   -1.272316  121.890776    0.000000
siesta:     72   -7.291348 -548.477708    0.000000
siesta: ----------------------------------------
siesta:    Tot   -0.269886   -0.268784    0.000000

siesta: Stress tensor (static) (eV/Ang**3):
siesta:    -0.418868    0.008049    0.000000
siesta:     0.008049   -1.874687    0.000000
siesta:     0.000000    0.000000   -0.000051

siesta: Cell volume =       1893.226884 Ang**3

siesta: Pressure (static):
siesta:                Solid            Molecule  Units
siesta:           0.00832677          0.13258821  Ry/Bohr**3
siesta:           0.76453534         12.17379849  eV/Ang**3
siesta:        1224.93389493      19504.78630965  kBar
(Free)E+ p_basis*V_orbitals  =      -12106.759939
(Free)Eharris+ p_basis*V_orbitals  =      -12106.740930

siesta: Electric dipole (a.u.)  =    0.000000    0.000000    0.000000
siesta: Electric dipole (Debye) =    0.000000    0.000000    0.000000

* Maximum dynamic memory allocated : Node    0 =   148 MB
* Maximum dynamic memory allocated : Node    1 =    58 MB
* Maximum dynamic memory allocated : Node    2 =    60 MB
* Maximum dynamic memory allocated : Node    3 =   135 MB
* Maximum dynamic memory allocated : Node    4 =   144 MB
* Maximum dynamic memory allocated : Node    5 =    52 MB
* Maximum dynamic memory allocated : Node    6 =    53 MB
* Maximum dynamic memory allocated : Node    7 =   135 MB
* Maximum dynamic memory allocated : Node    8 =   129 MB
* Maximum dynamic memory allocated : Node    9 =    53 MB
* Maximum dynamic memory allocated : Node   10 =    54 MB
* Maximum dynamic memory allocated : Node   11 =   124 MB

* Maximum memory occured during matrixMtoO                    

timer: CPU execution times:
timer:  Routine       Calls   Time/call    Tot.time        %
timer:  siesta            1  109689.517  109689.517   100.00
timer:  Setup             1       3.350       3.350     0.00
timer:  bands             3     226.858     680.574     0.62
timer:  writewave         1       0.023       0.023     0.00
timer:  KSV_init          1       0.003       0.003     0.00
timer:  IterMD            1  108998.687  108998.687    99.37
timer:  hsparse           1       0.166       0.166     0.00
timer:  overlap           1       7.152       7.152     0.01
timer:  IterSCF          37    2942.672  108878.848    99.26
timer:  kinefsm           2       3.622       7.244     0.01
timer:  nlefsm            2      18.399      36.798     0.03
timer:  DHSCF            38      59.491    2260.662     2.06
timer:  DHSCF1            1       0.900       0.900     0.00
timer:  DHSCF2            1      24.276      24.276     0.02
timer:  REORD           306       0.002       0.625     0.00
timer:  POISON           39       0.451      17.572     0.02
timer:  DHSCF3           38      58.273    2214.376     2.02
timer:  rhoofd           38      12.538     476.428     0.43
timer:  cellXC           38       2.431      92.373     0.08
timer:  vmat             38      27.428    1042.258     0.95
timer:  MolMec            2       0.000       0.001     0.00
timer:  diagon           37    2881.962  106632.579    97.21
timer:  c-eigval       8668       5.607   48604.526    44.31
timer:  c-buildHS      8668       0.033     284.434     0.26
timer:  cdiag         17215       5.716   98396.258    89.70
timer:  cdiag1        17215       0.262    4504.734     4.11
timer:  cdiag2        17215       1.842   31706.156    28.91
timer:  cdiag3        17215       3.396   58456.165    53.29
timer:  cdiag4        17215       0.088    1515.946     1.38
timer:  c-eigvec       8547       5.886   50308.704    45.86
timer:  c-buildD       8547       0.977    8353.022     7.62
timer:  DHSCF4            1      20.863      20.863     0.02
timer:  dfscf             1      19.440      19.440     0.02
timer:  overfsm           1       0.279       0.279     0.00
timer:  optical           1       6.310       6.310     0.01
  

elaps: ELAPSED times:
elaps:  Routine       Calls   Time/call    Tot.time        %
elaps:  siesta            1    9162.301    9162.301   100.00
elaps:  Setup             1       0.280       0.280     0.00
elaps:  bands             3      18.964      56.893     0.62
elaps:  writewave         1       0.002       0.002     0.00
elaps:  KSV_init          1       0.000       0.000     0.00
elaps:  IterMD            1    9104.596    9104.596    99.37
elaps:  hsparse           1       0.017       0.017     0.00
elaps:  overlap           1       0.711       0.711     0.01
elaps:  IterSCF          37     245.800    9094.585    99.26
elaps:  kinefsm           2       0.364       0.727     0.01
elaps:  nlefsm            2       1.627       3.253     0.04
elaps:  DHSCF            38       5.018     190.665     2.08
elaps:  DHSCF1            1       0.077       0.077     0.00
elaps:  DHSCF2            1       2.027       2.027     0.02
elaps:  REORD           306       0.000       0.092     0.00
elaps:  POISON           39       0.038       1.484     0.02
elaps:  DHSCF3           38       4.868     184.994     2.02
elaps:  rhoofd           38       2.254      85.659     0.93
elaps:  cellXC           38       0.203       7.696     0.08
elaps:  vmat             38       2.292      87.086     0.95
elaps:  MolMec            2       0.000       0.000     0.00
elaps:  diagon           37     240.737    8907.262    97.22
elaps:  c-eigval       8668       0.468    4059.861    44.31
elaps:  c-buildHS      8668       0.004      31.212     0.34
elaps:  cdiag         17215       0.472    8122.108    88.65
elaps:  cdiag1        17215       0.021     368.289     4.02
elaps:  cdiag2        17215       0.154    2650.775    28.93
elaps:  cdiag3        17215       0.284    4889.850    53.37
elaps:  cdiag4        17215       0.007     122.417     1.34
elaps:  c-eigvec       8547       0.482    4119.597    44.96
elaps:  c-buildD       8547       0.091     780.195     8.52
elaps:  DHSCF4            1       3.526       3.526     0.04
elaps:  dfscf             1       3.336       3.336     0.04
elaps:  overfsm           1       0.031       0.031     0.00
elaps:  optical           1       0.000       0.000     0.00
  
>> End of run:   7-MAY-2016  19:12:31
