Siesta Version:                                        siesta-3.2-pl-3
Architecture  : x86_64-unknown-linux-gnu--unknown
Compiler flags: mpiifort -g -O2 -fPIC -xSSE4.1 -fp-model source -shared-intel 
PARALLEL version

* Running on    8 nodes in parallel
>> Start of run:  28-APR-2016  17:46:19

                           ***********************       
                           *  WELCOME TO SIESTA  *       
                           ***********************       

reinit: Reading from standard input
************************** Dump of input data file ****************************
#(1) General system descriptors
SystemName            GRP_doping    # Descriptive name of the system
SystemLabel           GRP_doping    # Short name for naming files
%include STRUCT.fdf
%include KPT.fdf
%include BASIS.fdf
#%include TS.fdf # for transiesta calculation
#(4) DFT, Grid, SCF
XC.functional         GGA           # LDA or GGA (default = LDA)
XC.authors            PBE           # CA (Ceperley-Aldr) = PZ
                                    #    (Perdew-Zunger) - LDA - Default
                                    # PW92 (Perdew-Wang-92) - LDA
                                    # PBE (Perdew-Burke-Ernzerhof) - GGA
MeshCutoff            200.000000    Ry      # Default: 50.0 Ry ~ 0.444 Bohr
                                    #         100.0 Ry ~ 0.314 Bohr
MaxSCFIterations      500           # Default: 50
DM.MixingWeight       0.05          # Default: 0.25
DM.NumberPulay        10            # Default: 0
DM.PulayOnFile        F             # SystemLabel.P1, SystemLabel.P2
DM.Tolerance          1.d-4         # Default: 1.d-4
DM.UseSaveDM          .true.        # because of the bug
SCFMustConverge       .true.
NeglNonOverlapInt     F             # Default: F
#(5) Eigenvalue problem: order-N or diagonalization
SolutionMethod        Diagon        # or Transiesta
ElectronicTemperature 300.0 K       # Default: 300.0 K
#(6) Molecular dynamics and relaxations
#MD.TypeOfRun          CG            # Type of dynamics:
#MD.VariableCell       F
#MD.NumCGsteps         0           # 0 for single-point / 100 for gopt
#MD.MaxCGDispl         0.2 Bohr      # Default: 0.2 Bohr
#MD.MaxForceTol        0.02 eV/Ang   # Default: 0.04 eV/Ang
#MD.MaxStressTol       1.0 GPa       # Default: 1.0 GPa
# Geometry Constraints
#%block GeometryConstraints
#	position from 1 to 44
#%endblock GeometryConstraints
BandLinesScale   pi/a
%block BandLines
 1   0.00000000  0.00000000  0.00000000
50   0.00000000  0.07809418  0.00000000
50   0.04509075  0.07809242  0.00000000
20   0.00000000  0.00000000  0.00000000
%endblock BandLines
************************** End of input data file *****************************

reinit: -----------------------------------------------------------------------
reinit: System Name: GRP_doping
reinit: -----------------------------------------------------------------------
reinit: System Label: GRP_doping                                                  
reinit: -----------------------------------------------------------------------

initatom: Reading input for the pseudopotentials and atomic orbitals ----------
 Species number:            1  Label: B Atomic number:           5
 Species number:            2  Label: C Atomic number:           6
Ground state valence configuration:   2s02  2p01
Reading pseudopotential information in formatted form from B.psf

Valence configuration for pseudopotential generation:
2s( 2.00) rc: 1.74
2p( 1.00) rc: 1.74
3d( 0.00) rc: 1.74
4f( 0.00) rc: 1.74
Ground state valence configuration:   2s02  2p02
Reading pseudopotential information in formatted form from C.psf

Valence configuration for pseudopotential generation:
2s( 2.00) rc: 1.54
2p( 2.00) rc: 1.54
3d( 0.00) rc: 1.54
4f( 0.00) rc: 1.54
For B, standard SIESTA heuristics set lmxkb to 3
 (one more than the basis l, including polarization orbitals).
Use PS.lmax or PS.KBprojectors blocks to override.
For C, standard SIESTA heuristics set lmxkb to 3
 (one more than the basis l, including polarization orbitals).
Use PS.lmax or PS.KBprojectors blocks to override.

<basis_specs>
===============================================================================
B                    Z=   5    Mass=  10.810        Charge= 0.17977+309
Lmxo=1 Lmxkb= 3    BasisType=split      Semic=F
L=0  Nsemic=0  Cnfigmx=2
          n=1  nzeta=2  polorb=0
            splnorm:   0.15000    
               vcte:    0.0000    
               rinn:    0.0000    
                rcs:    0.0000      0.0000    
            lambdas:    1.0000      1.0000    
L=1  Nsemic=0  Cnfigmx=2
          n=1  nzeta=2  polorb=1
            splnorm:   0.15000    
               vcte:    0.0000    
               rinn:    0.0000    
                rcs:    0.0000      0.0000    
            lambdas:    1.0000      1.0000    
-------------------------------------------------------------------------------
L=0  Nkbl=1  erefs: 0.17977+309
L=1  Nkbl=1  erefs: 0.17977+309
L=2  Nkbl=1  erefs: 0.17977+309
L=3  Nkbl=1  erefs: 0.17977+309
===============================================================================
</basis_specs>

atom: Called for B                     (Z =   5)

read_vps: Pseudopotential generation method:
read_vps: ATM3      Troullier-Martins                       
Total valence charge:    3.00000

read_vps: Pseudopotential includes a core correction:
read_vps: Pseudo-core for xc-correction

xc_check: Exchange-correlation functional:
xc_check: GGA Perdew, Burke & Ernzerhof 1996
V l=0 = -2*Zval/r beyond r=  1.7165
V l=1 = -2*Zval/r beyond r=  1.7165
V l=2 = -2*Zval/r beyond r=  1.7165
V l=3 = -2*Zval/r beyond r=  1.6951
All V_l potentials equal beyond r=  1.7165
This should be close to max(r_c) in ps generation
All pots = -2*Zval/r beyond r=  1.7165

VLOCAL1: 99.0% of the norm of Vloc inside     14.733 Ry
VLOCAL1: 99.9% of the norm of Vloc inside     33.577 Ry
atom: Maximum radius for 4*pi*r*r*local-pseudopot. charge    2.04484
atom: Maximum radius for r*vlocal+2*Zval:    1.75994
GHOST: No ghost state for L =  0
GHOST: No ghost state for L =  1
GHOST: No ghost state for L =  2
GHOST: No ghost state for L =  3

KBgen: Kleinman-Bylander projectors: 
   l= 0   rc=  1.897051   el= -0.693730   Ekb=  4.595746   kbcos=  0.286105
   l= 1   rc=  1.920920   el= -0.265236   Ekb= -2.350715   kbcos= -0.315747
   l= 2   rc=  2.044840   el=  0.002055   Ekb= -0.690767   kbcos= -0.013822
   l= 3   rc=  2.149707   el=  0.003188   Ekb= -0.315358   kbcos= -0.002055

KBgen: Total number of  Kleinman-Bylander projectors:   16
atom: -------------------------------------------------------------------------

atom: SANKEY-TYPE ORBITALS:
atom: Selected multiple-zeta basis: split     

SPLIT: Orbitals with angular momentum L= 0

SPLIT: Basis orbitals for state 2s

SPLIT: PAO cut-off radius determined from an
SPLIT: energy shift=  0.007350 Ry

   izeta = 1
                 lambda =    1.000000
                     rc =    5.422032
                 energy =   -0.686029
                kinetic =    0.576707
    potential(screened) =   -1.262736
       potential(ionic) =   -3.271094

   izeta = 2
                 rmatch =    4.222573
              splitnorm =    0.150000
                 energy =   -0.602132
                kinetic =    0.858975
    potential(screened) =   -1.461107
       potential(ionic) =   -3.582536

SPLIT: Orbitals with angular momentum L= 1

SPLIT: Basis orbitals for state 2p

SPLIT: PAO cut-off radius determined from an
SPLIT: energy shift=  0.007350 Ry

   izeta = 1
                 lambda =    1.000000
                     rc =    6.790259
                 energy =   -0.258578
                kinetic =    1.481412
    potential(screened) =   -1.739989
       potential(ionic) =   -3.657461

   izeta = 2
                 rmatch =    4.608740
              splitnorm =    0.150000
                 energy =   -0.173757
                kinetic =    2.186690
    potential(screened) =   -2.360447
       potential(ionic) =   -4.464260

POLgen: Perturbative polarization orbital with L=  2

POLgen: Polarization orbital for state 2p

   izeta = 1
                     rc =    6.790259
                 energy =    0.684082
                kinetic =    1.471481
    potential(screened) =   -0.787399
       potential(ionic) =   -2.406985
atom: Total number of Sankey-type orbitals: 13

atm_pop: Valence configuration (for local Pseudopot. screening):
 2s( 2.00)                                                            
 2p( 1.00)                                                            
Vna: chval, zval:    3.00000   3.00000

Vna:  Cut-off radius for the neutral-atom potential:   6.790259
comcore: Pseudo-core radius Rcore=  2.122997

atom: _________________________________________________________________________

<basis_specs>
===============================================================================
C                    Z=   6    Mass=  12.010        Charge= 0.17977+309
Lmxo=1 Lmxkb= 3    BasisType=split      Semic=F
L=0  Nsemic=0  Cnfigmx=2
          n=1  nzeta=2  polorb=0
            splnorm:   0.15000    
               vcte:    0.0000    
               rinn:    0.0000    
                rcs:    0.0000      0.0000    
            lambdas:    1.0000      1.0000    
L=1  Nsemic=0  Cnfigmx=2
          n=1  nzeta=2  polorb=1
            splnorm:   0.15000    
               vcte:    0.0000    
               rinn:    0.0000    
                rcs:    0.0000      0.0000    
            lambdas:    1.0000      1.0000    
-------------------------------------------------------------------------------
L=0  Nkbl=1  erefs: 0.17977+309
L=1  Nkbl=1  erefs: 0.17977+309
L=2  Nkbl=1  erefs: 0.17977+309
L=3  Nkbl=1  erefs: 0.17977+309
===============================================================================
</basis_specs>

atom: Called for C                     (Z =   6)

read_vps: Pseudopotential generation method:
read_vps: ATM3      Troullier-Martins                       
Total valence charge:    4.00000

read_vps: Pseudopotential includes a core correction:
read_vps: Pseudo-core for xc-correction

xc_check: Exchange-correlation functional:
xc_check: GGA Perdew, Burke & Ernzerhof 1996
V l=0 = -2*Zval/r beyond r=  1.5227
V l=1 = -2*Zval/r beyond r=  1.5227
V l=2 = -2*Zval/r beyond r=  1.5227
V l=3 = -2*Zval/r beyond r=  1.5038
All V_l potentials equal beyond r=  1.5227
This should be close to max(r_c) in ps generation
All pots = -2*Zval/r beyond r=  1.5227

VLOCAL1: 99.0% of the norm of Vloc inside     18.722 Ry
VLOCAL1: 99.9% of the norm of Vloc inside     42.668 Ry
atom: Maximum radius for 4*pi*r*r*local-pseudopot. charge    1.83678
atom: Maximum radius for r*vlocal+2*Zval:    1.58088
GHOST: No ghost state for L =  0
GHOST: No ghost state for L =  1
GHOST: No ghost state for L =  2
GHOST: No ghost state for L =  3

KBgen: Kleinman-Bylander projectors: 
   l= 0   rc=  1.704034   el= -1.009801   Ekb=  5.335044   kbcos=  0.316824
   l= 1   rc=  1.704034   el= -0.388707   Ekb= -3.785862   kbcos= -0.366464
   l= 2   rc=  1.791422   el=  0.001971   Ekb= -0.970471   kbcos= -0.009212
   l= 3   rc=  1.859892   el=  0.003065   Ekb= -0.399525   kbcos= -0.001223

KBgen: Total number of  Kleinman-Bylander projectors:   16
atom: -------------------------------------------------------------------------

atom: SANKEY-TYPE ORBITALS:
atom: Selected multiple-zeta basis: split     

SPLIT: Orbitals with angular momentum L= 0

SPLIT: Basis orbitals for state 2s

SPLIT: PAO cut-off radius determined from an
SPLIT: energy shift=  0.007350 Ry

   izeta = 1
                 lambda =    1.000000
                     rc =    4.632753
                 energy =   -1.002270
                kinetic =    0.855760
    potential(screened) =   -1.858031
       potential(ionic) =   -5.417575

   izeta = 2
                 rmatch =    3.431921
              splitnorm =    0.150000
                 energy =   -0.867111
                kinetic =    1.300804
    potential(screened) =   -2.167915
       potential(ionic) =   -5.962684

SPLIT: Orbitals with angular momentum L= 1

SPLIT: Basis orbitals for state 2p

SPLIT: PAO cut-off radius determined from an
SPLIT: energy shift=  0.007350 Ry

   izeta = 1
                 lambda =    1.000000
                     rc =    5.658549
                 energy =   -0.381140
                kinetic =    2.399701
    potential(screened) =   -2.780841
       potential(ionic) =   -6.206085

   izeta = 2
                 rmatch =    3.653288
              splitnorm =    0.150000
                 energy =   -0.249149
                kinetic =    3.542762
    potential(screened) =   -3.791911
       potential(ionic) =   -7.581078

POLgen: Perturbative polarization orbital with L=  2

POLgen: Polarization orbital for state 2p

   izeta = 1
                     rc =    5.658549
                 energy =    1.109913
                kinetic =    2.304789
    potential(screened) =   -1.194876
       potential(ionic) =   -4.013592
atom: Total number of Sankey-type orbitals: 13

atm_pop: Valence configuration (for local Pseudopot. screening):
 2s( 2.00)                                                            
 2p( 2.00)                                                            
Vna: chval, zval:    4.00000   4.00000

Vna:  Cut-off radius for the neutral-atom potential:   5.658549
comcore: Pseudo-core radius Rcore=  1.791422

atom: _________________________________________________________________________

prinput: Basis input ----------------------------------------------------------

PAO.BasisType split     

%block ChemicalSpeciesLabel
    1    5 B                       # Species index, atomic number, species label
    2    6 C                       # Species index, atomic number, species label
%endblock ChemicalSpeciesLabel

%block PAO.Basis                 # Define Basis set
B                     2                    # Species label, number of l-shells
 n=2   0   2                         # n, l, Nzeta 
   5.422      4.223   
   1.000      1.000   
 n=2   1   2 P   1                   # n, l, Nzeta, Polarization, NzetaPol
   6.790      4.609   
   1.000      1.000   
C                     2                    # Species label, number of l-shells
 n=2   0   2                         # n, l, Nzeta 
   4.633      3.432   
   1.000      1.000   
 n=2   1   2 P   1                   # n, l, Nzeta, Polarization, NzetaPol
   5.659      3.653   
   1.000      1.000   
%endblock PAO.Basis

prinput: ----------------------------------------------------------------------

coor:   Atomic-coordinates input format  =     Fractional

siesta: Atomic coordinates (Bohr) and species
siesta:      6.95932  17.38257   0.00000  1        1
siesta:      9.28770  18.72698   0.00000  1        2
siesta:      9.28770  21.41544   0.00000  1        3
siesta:     -0.02582  13.34970   0.00000  1        4
siesta:      2.30256  14.69411   0.00000  1        5
siesta:      4.63094  21.41544   0.00000  1        6
siesta:      6.95932  22.75985   0.00000  1        7
siesta:      6.95932  25.44831   0.00000  1        8
siesta:     -2.35420  14.69411   0.00000  1        9
siesta:     -0.02582  21.41544   0.00000  1       10
siesta:      2.30256  22.75985   0.00000  1       11
siesta:      2.30256  25.44831   0.00000  1       12
siesta:     -4.68258  21.41544   0.00000  1       13
siesta:     -2.35420  22.75985   0.00000  1       14
siesta:     -2.35420  25.44831   0.00000  1       15
siesta:     -7.01096  22.75985   0.00000  1       16
siesta:     -7.01096  25.44831   0.00000  1       17
siesta:      4.63094  26.79272   0.00000  1       18
siesta:     -0.02582  26.79272   0.00000  1       19
siesta:     -0.02582  29.48119   0.00000  1       20
siesta:     -4.68258  26.79272   0.00000  1       21
siesta:     -0.02582   2.59549   0.00000  2       22
siesta:     -0.02582   5.28395   0.00000  2       23
siesta:     -2.35420  38.89134   0.00000  2       24
siesta:     -2.35420  41.57980   0.00000  2       25
siesta:      2.30256  38.89134   0.00000  2       26
siesta:      2.30256  41.57980   0.00000  2       27
siesta:      4.63094  34.85847   0.00000  2       28
siesta:      4.63094  37.54693   0.00000  2       29
siesta:      6.95932  30.82560   0.00000  2       30
siesta:      6.95932  33.51406   0.00000  2       31
siesta:      9.28770  26.79272   0.00000  2       32
siesta:      9.28770  29.48119   0.00000  2       33
siesta:     -4.68258  34.85847   0.00000  2       34
siesta:     -4.68258  37.54693   0.00000  2       35
siesta:      2.30256   6.62836   0.00000  2       36
siesta:      2.30256   9.31683   0.00000  2       37
siesta:      4.63094  10.66124   0.00000  2       38
siesta:      4.63094  13.34970   0.00000  2       39
siesta:      6.95932  14.69411   0.00000  2       40
siesta:     11.61608  22.75985   0.00000  2       41
siesta:     11.61608  25.44831   0.00000  2       42
siesta:     -2.35420   6.62836   0.00000  2       43
siesta:     -2.35420   9.31683   0.00000  2       44
siesta:     -0.02582  10.66124   0.00000  2       45
siesta:      2.30256  17.38257   0.00000  2       46
siesta:      4.63094  18.72698   0.00000  2       47
siesta:     -4.68258  10.66124   0.00000  2       48
siesta:     -4.68258  13.34970   0.00000  2       49
siesta:     -2.35420  17.38257   0.00000  2       50
siesta:     -0.02582  18.72698   0.00000  2       51
siesta:     -7.01096  14.69411   0.00000  2       52
siesta:     -7.01096  17.38257   0.00000  2       53
siesta:     -4.68258  18.72698   0.00000  2       54
siesta:     -9.33934  18.72698   0.00000  2       55
siesta:     -9.33934  21.41544   0.00000  2       56
siesta:    -11.66772  22.75985   0.00000  2       57
siesta:    -11.66772  25.44831   0.00000  2       58
siesta:     -9.33934  26.79272   0.00000  2       59
siesta:     -9.33934  29.48119   0.00000  2       60
siesta:      4.63094  29.48119   0.00000  2       61
siesta:     -4.68258  29.48119   0.00000  2       62
siesta:      2.30256  30.82560   0.00000  2       63
siesta:      2.30256  33.51406   0.00000  2       64
siesta:     -2.35420  30.82560   0.00000  2       65
siesta:     -2.35420  33.51406   0.00000  2       66
siesta:     -7.01096  30.82560   0.00000  2       67
siesta:     -7.01096  33.51406   0.00000  2       68
siesta:     -0.02582  34.85847   0.00000  2       69
siesta:     -0.02582  37.54693   0.00000  2       70
siesta:     -0.02582  42.92421   0.00000  2       71
siesta:     -0.02582  45.61267   0.00000  2       72

siesta: System type = slab      

initatomlists: Number of atoms, orbitals, and projectors:     72   936  1152

siesta: ******************** Simulation parameters ****************************
siesta:
siesta: The following are some of the parameters of the simulation.
siesta: A complete list of the parameters used, including default values,
siesta: can be found in file out.fdf
siesta:
redata: Non-Collinear-spin run           =     F
redata: SpinPolarized (Up/Down) run      =     F
redata: Number of spin components        =     1
redata: Long output                      =     F
redata: Number of Atomic Species         =        2
redata: Charge density info will appear in .RHO file
redata: Write Mulliken Pop.              =     NO
redata: Mesh Cutoff                      =   200.0000  Ry
redata: Net charge of the system         =     0.0000 |e|
redata: Max. number of SCF Iter          =      500
redata: SCF convergence failure will abort job
redata: Performing Pulay mixing using    =    10 iterations
redata: Mix DM in first SCF step ?       =     F
redata: Write Pulay info on disk?        =     F
redata: Discard 1st Pulay DM after  kick =     F
redata: New DM Mixing Weight             =     0.0500
redata: New DM Occupancy tolerance       = 0.000000000001
redata: No kicks to SCF
redata: DM Mixing Weight for Kicks       =     0.5000
redata: DM Tolerance for SCF             =     0.000100
redata: Require Energy convergence for SCF =     F
redata: DM Energy tolerance for SCF      =     0.000100 eV
redata: Require Harris convergence for SCF =     F
redata: DM Harris energy tolerance for SCF =     0.000100 eV
redata: Using Saved Data (generic)   =     F
redata: Use continuation files for DM    =     T
redata: Neglect nonoverlap interactions  =     F
redata: Method of Calculation            =     Diagonalization
redata: Divide and Conquer               =     T
redata: Electronic Temperature           =     0.0019  Ry
redata: Fix the spin of the system       =     F
redata: Dynamics option                  =     Verlet MD run
redata: Initial MD time step             =        1
redata:   Final MD time step             =        1
redata: Length of MD time step           =     1.0000  fs
redata: Initial Temperature of MD run    =     0.0000  K
redata: Perform a MD quench              =     F
redata: ***********************************************************************
Total number of electrons:   267.000000
Total ionic charge:   267.000000

* ProcessorY, Blocksize:    2  24

k-point displ. along   1 input, could be:     0.50    0.00
k-point displ. along   2 input, could be:     0.50    0.00
 Kpoints in:          231 . Kpoints trimmed:          231

siesta: k-grid: Number of k-points =   231
siesta: k-grid: Cutoff (effective) =     5.000 Ang
siesta: k-grid: Supercell and displacements
siesta: k-grid:   21   0   0      0.500
siesta: k-grid:    0  21   0      0.500
siesta: k-grid:    0   0   1      0.000
Naive supercell factors:     2    2    2

superc: Internal auxiliary supercell:     2 x     2 x     2  =       8
superc: Number of atoms, orbitals, and projectors:    576   7488   9216

* Maximum dynamic memory allocated =     4 MB

siesta:                 ==============================
                            Begin MD step =      1
                        ==============================

superc: Internal auxiliary supercell:     2 x     2 x     2  =       8
superc: Number of atoms, orbitals, and projectors:    576   7488   9216

outcell: Unit cell vectors (Ang):
       12.804619    7.392750    0.000000
        0.000000   14.785500    0.000000
        0.000000    0.000000   10.000000

outcell: Cell vector modules (Ang)   :   14.785500   14.785500   10.000000
outcell: Cell angles (23,13,12) (deg):     90.0000     90.0000     60.0000
outcell: Cell volume (Ang**3)        :   1893.2269
New_DM. Step:     1
Initializing Density Matrix...

InitMesh: MESH =   120 x   120 x    90 =     1296000
InitMesh: Mesh cutoff (required, used) =   200.000   223.865 Ry

* Maximum dynamic memory allocated =   219 MB

stepf: Fermi-Dirac step function

siesta: Program's energy decomposition (eV):
siesta: Ebs     =     -5511.481499
siesta: Eions   =     15713.820136
siesta: Ena     =      4216.406454
siesta: Ekin    =      5270.679987
siesta: Enl     =       812.361527
siesta: DEna    =        -0.000008
siesta: DUscf   =         0.000000
siesta: DUext   =         0.000000
siesta: Exc     =     -4206.675567
siesta: eta*DQ  =         0.000000
siesta: Emadel  =         0.000000
siesta: Emeta   =         0.000000
siesta: Emolmec =         0.000000
siesta: Ekinion =         0.000000
siesta: Eharris =     -9338.026205
siesta: Etot    =     -9621.047743
siesta: FreeEng =     -9621.047743

siesta: iscf   Eharris(eV)      E_KS(eV)   FreeEng(eV)   dDmax  Ef(eV)
siesta:    1    -9338.0262    -9621.0477    -9621.0477  6.3467 -8.4541
timer: Routine,Calls,Time,% = IterSCF        1    4619.148  99.75
elaps: Routine,Calls,Wall,% = IterSCF        1     578.131  99.75
siesta:    2   -14082.6258    -8554.4153    -8554.4735 20.3780 -3.2325
siesta:    3    -9277.3547    -9497.4311    -9497.4952  3.5871 -6.9417
siesta:    4    -9250.0893    -9372.1655    -9372.1953  1.7530 -5.9672
siesta:    5    -9215.8135    -9243.3850    -9243.4191  1.2139 -5.3408
siesta:    6    -9196.8193    -9222.2055    -9222.2538  1.1134 -5.3236
siesta:    7    -9186.4376    -9203.9528    -9204.0108  0.7264 -5.3337
siesta:    8    -9184.6862    -9198.9370    -9198.9763  0.7166 -5.3452
siesta:    9    -9182.5030    -9188.8130    -9188.8682  0.6181 -5.2859
siesta:   10    -9183.2194    -9166.9975    -9167.0385  0.4509 -5.1315
siesta:   11    -9181.4220    -9164.1286    -9164.1923  0.3259 -5.1862
siesta:   12    -9181.4452    -9154.6647    -9154.7200  0.1655 -5.1716
siesta:   13    -9181.2994    -9153.3158    -9153.3788  0.1486 -5.1700
siesta:   14    -9180.8136    -9157.8947    -9157.9603  0.1189 -5.1944
siesta:   15    -9180.4675    -9165.1790    -9165.2373  0.0817 -5.2195
siesta:   16    -9180.3891    -9169.3445    -9169.4041  0.0760 -5.2362
siesta:   17    -9180.3603    -9171.3981    -9171.4562  0.0686 -5.2454
siesta:   18    -9180.3312    -9173.2325    -9173.2911  0.0324 -5.2533
siesta:   19    -9180.3205    -9175.9843    -9176.0426  0.0182 -5.2597
siesta:   20    -9180.3171    -9176.8867    -9176.9464  0.0186 -5.2548
siesta:   21    -9180.3157    -9178.1028    -9178.1623  0.0141 -5.2498
siesta:   22    -9180.3162    -9179.5062    -9179.5654  0.0132 -5.2478
siesta:   23    -9180.3150    -9180.1365    -9180.1951  0.0086 -5.2457
siesta:   24    -9180.3144    -9180.3049    -9180.3638  0.0046 -5.2449
siesta:   25    -9180.3142    -9180.3382    -9180.3972  0.0036 -5.2443
siesta:   26    -9180.3141    -9180.3320    -9180.3911  0.0027 -5.2445
siesta:   27    -9180.3141    -9180.3602    -9180.4193  0.0016 -5.2449
siesta:   28    -9180.3141    -9180.3749    -9180.4340  0.0014 -5.2451
siesta:   29    -9180.3141    -9180.3737    -9180.4329  0.0007 -5.2450
siesta:   30    -9180.3141    -9180.3674    -9180.4265  0.0004 -5.2449
siesta:   31    -9180.3141    -9180.3594    -9180.4186  0.0003 -5.2449
siesta:   32    -9180.3141    -9180.3505    -9180.4096  0.0002 -5.2449
siesta:   33    -9180.3141    -9180.3330    -9180.3921  0.0001 -5.2450
siesta:   34    -9180.3141    -9180.3190    -9180.3781  0.0001 -5.2450

siesta: E_KS(eV) =            -9180.3172

siesta: E_KS - E_eggbox =     -9180.3172

siesta: Atomic forces (eV/Ang):
----------------------------------------
   Tot   -0.030337   -0.155031    0.000000
----------------------------------------
   Max  559.026222
   Res  148.640794    sqrt( Sum f_i^2 / 3N )
----------------------------------------
   Max  559.026222    constrained

Stress-tensor-Voigt (kbar):     -811.80    -2728.95       -0.71       -4.70        0.00        0.00
(Free)E + p*V (eV/cell)    -7785.4570
Target enthalpy (eV/cell)    -9180.3763

siesta: Stress tensor (static) (eV/Ang**3):
        -0.506683   -0.002932    0.000000
        -0.002932   -1.703259    0.000000
         0.000000    0.000000   -0.000442

siesta: Pressure (static):       1180.48780077  kBar

siesta: Stress tensor (total) (eV/Ang**3):
        -0.506683   -0.002932    0.000000
        -0.002932   -1.703259    0.000000
         0.000000    0.000000   -0.000442

siesta: Pressure (total):       1180.48780077  kBar

siesta: Temp_ion =       0.000 K

* Maximum dynamic memory allocated =   235 MB
Computing bands...

siesta: Program's energy decomposition (eV):
siesta: Ebs     =     -4166.683773
siesta: Eions   =     15713.820136
siesta: Ena     =      4216.406454
siesta: Ekin    =      8149.548214
siesta: Enl     =      -780.301242
siesta: DEna    =      -780.705812
siesta: DUscf   =       103.355160
siesta: DUext   =         0.000000
siesta: Exc     =     -4374.799844
siesta: eta*DQ  =         0.000000
siesta: Emadel  =         0.000000
siesta: Emeta   =         0.000000
siesta: Emolmec =         0.000000
siesta: Ekinion =         0.000000
siesta: Eharris =     -9180.314069
siesta: Etot    =     -9180.317205
siesta: FreeEng =     -9180.376320

siesta: Final energy (eV):
siesta:  Band Struct. =   -4166.683773
siesta:       Kinetic =    8149.548214
siesta:       Hartree =   26917.787946
siesta:    Ext. field =       0.000000
siesta:   Exch.-corr. =   -4374.799844
siesta:  Ion-electron =  -61720.815296
siesta:       Ion-ion =   21847.961775
siesta:       Ekinion =       0.000000
siesta:         Total =   -9180.317205

siesta: Atomic forces (eV/Ang):
siesta:      1   -1.186125   -4.216633    0.000000
siesta:      2    4.028605   -2.289138    0.000000
siesta:      3    8.938870    1.298363    0.000000
siesta:      4   -0.068147 -101.038225    0.000000
siesta:      5   17.771253  400.210400    0.000000
siesta:      6    0.217589   -4.107254    0.000000
siesta:      7   -1.130297   -0.251326    0.000000
siesta:      8    2.722921    2.491220    0.000000
siesta:      9  -17.889815  399.719206    0.000000
siesta:     10    0.015594   -4.395754    0.000000
siesta:     11   -1.099401    0.217135    0.000000
siesta:     12   -0.199066    0.160731    0.000000
siesta:     13    0.279457   -3.711419    0.000000
siesta:     14    0.859280   -0.279283    0.000000
siesta:     15    0.056008    0.140305    0.000000
siesta:     16   -2.837174   -2.559847    0.000000
siesta:     17   -2.653022    2.458151    0.000000
siesta:     18   -0.436383    3.885873    0.000000
siesta:     19    0.034588    1.401001    0.000000
siesta:     20    0.038741 -409.696653    0.000000
siesta:     21    0.479836    4.188298    0.000000
siesta:     22   -0.220929  406.923806    0.000000
siesta:     23    0.343463 -125.965592    0.000000
siesta:     24    1.841757  125.373441    0.000000
siesta:     25  -16.589700 -404.028698    0.000000
siesta:     26   -2.009752  125.407663    0.000000
siesta:     27   17.072221 -404.230066    0.000000
siesta:     28   27.420897    5.801866    0.000000
siesta:     29   35.238574 -552.246885    0.000000
siesta:     30    2.141407    1.087667    0.000000
siesta:     31   -2.639785    1.239941    0.000000
siesta:     32    6.680048    3.697339    0.000000
siesta:     33   -1.177379   -0.420592    0.000000
siesta:     34  -27.184153    5.761074    0.000000
siesta:     35  -34.941202 -552.092252    0.000000
siesta:     36   17.244912  549.864620    0.000000
siesta:     37   -1.157590 -126.012047    0.000000
siesta:     38   28.422555  550.853613    0.000000
siesta:     39   25.656561   -0.638762    0.000000
siesta:     40   -3.008594   -4.974821    0.000000
siesta:     41    1.852723    6.388955    0.000000
siesta:     42    0.278843   -4.934299    0.000000
siesta:     43  -17.315441  549.797838    0.000000
siesta:     44    0.913763 -125.806390    0.000000
siesta:     45    0.287335  539.634317    0.000000
siesta:     46   22.679108   -4.573377    0.000000
siesta:     47   -4.575887   -1.052950    0.000000
siesta:     48  -28.740033  550.993725    0.000000
siesta:     49  -25.634135   -0.157007    0.000000
siesta:     50  -22.573806   -5.035756    0.000000
siesta:     51    0.080147  559.026222    0.000000
siesta:     52    2.087949   -1.634752    0.000000
siesta:     53   -2.307392   -1.006665    0.000000
siesta:     54    1.746059   -1.574451    0.000000
siesta:     55    1.781058   -0.385068    0.000000
siesta:     56   -6.878491   -3.263213    0.000000
siesta:     57    0.500317    4.976092    0.000000
siesta:     58    0.208981   -4.996703    0.000000
siesta:     59   -6.545778    3.266825    0.000000
siesta:     60    1.721581    0.535400    0.000000
siesta:     61   -1.310391    2.508246    0.000000
siesta:     62    2.118595    2.205728    0.000000
siesta:     63   22.239858    2.913150    0.000000
siesta:     64   22.649404 -557.632569    0.000000
siesta:     65  -22.507114    2.601478    0.000000
siesta:     66  -23.154245 -557.576717    0.000000
siesta:     67   -3.149755    0.816346    0.000000
siesta:     68    2.552863    1.370463    0.000000
siesta:     69    0.151548  127.078538    0.000000
siesta:     70    0.234157 -551.253924    0.000000
siesta:     71    0.037151  131.014929    0.000000
siesta:     72   -0.535934 -553.425908    0.000000
siesta: ----------------------------------------
siesta:    Tot   -0.030337   -0.155031    0.000000

siesta: Stress tensor (static) (eV/Ang**3):
siesta:    -0.506683   -0.002932    0.000000
siesta:    -0.002932   -1.703259    0.000000
siesta:     0.000000    0.000000   -0.000442

siesta: Cell volume =       1893.226884 Ang**3

siesta: Pressure (static):
siesta:                Solid            Molecule  Units
siesta:           0.00802463          0.11402639  Ry/Bohr**3
siesta:           0.73679457         10.46951575  eV/Ang**3
siesta:        1180.48780077      16774.19481567  kBar
(Free)E+ p_basis*V_orbitals  =       -9143.003681
(Free)Eharris+ p_basis*V_orbitals  =       -9142.998727

siesta: Electric dipole (a.u.)  =    0.000000    0.000000    0.000000
siesta: Electric dipole (Debye) =    0.000000    0.000000    0.000000

* Maximum dynamic memory allocated : Node    0 =   235 MB
* Maximum dynamic memory allocated : Node    1 =    81 MB
* Maximum dynamic memory allocated : Node    2 =    86 MB
* Maximum dynamic memory allocated : Node    3 =   223 MB
* Maximum dynamic memory allocated : Node    4 =   233 MB
* Maximum dynamic memory allocated : Node    5 =    84 MB
* Maximum dynamic memory allocated : Node    6 =    86 MB
* Maximum dynamic memory allocated : Node    7 =   215 MB

* Maximum memory occured during matrixMtoO                    

timer: CPU execution times:
timer:  Routine       Calls   Time/call    Tot.time        %
timer:  siesta            1  153518.302  153518.302   100.00
timer:  Setup             1       3.017       3.017     0.00
timer:  bands             3     271.796     815.389     0.53
timer:  writewave         1       0.018       0.018     0.00
timer:  KSV_init          1       0.004       0.004     0.00
timer:  IterMD            1  152693.999  152693.999    99.46
timer:  hsparse           1       0.395       0.395     0.00
timer:  overlap           1       7.801       7.801     0.01
timer:  IterSCF          34    4484.359  152468.205    99.32
timer:  kinefsm           2       4.042       8.083     0.01
timer:  nlefsm            2      21.181      42.362     0.03
timer:  DHSCF            35     119.103    4168.589     2.72
timer:  DHSCF1            1       1.016       1.016     0.00
timer:  DHSCF2            1      44.749      44.749     0.03
timer:  REORD           282       0.011       3.013     0.00
timer:  POISON           36       2.404      86.534     0.06
timer:  DHSCF3           35     116.494    4077.297     2.66
timer:  rhoofd           35      25.826     903.910     0.59
timer:  cellXC           35       3.484     121.943     0.08
timer:  vmat             35      57.033    1996.162     1.30
timer:  MolMec            2       0.000       0.001     0.00
timer:  diagon           34    4364.171  148381.812    96.65
timer:  c-eigval       7975       6.749   53820.187    35.06
timer:  c-buildHS      7975       0.134    1070.055     0.70
timer:  cdiag         15829       6.963  110220.599    71.80
timer:  cdiag1        15829       0.433    6852.297     4.46
timer:  cdiag2        15829       1.922   30427.873    19.82
timer:  cdiag3        15829       3.971   62849.701    40.94
timer:  cdiag4        15829       0.230    3640.465     2.37
timer:  c-eigvec       7854       7.383   57988.776    37.77
timer:  c-buildD       7854       4.755   37344.340    24.33
timer:  DHSCF4            1      43.434      43.434     0.03
timer:  dfscf             1      40.752      40.752     0.03
timer:  overfsm           1       0.482       0.482     0.00
timer:  optical           1       5.154       5.154     0.00
  

elaps: ELAPSED times:
elaps:  Routine       Calls   Time/call    Tot.time        %
elaps:  siesta            1   19212.716   19212.716   100.00
elaps:  Setup             1       0.378       0.378     0.00
elaps:  bands             3      34.027     102.082     0.53
elaps:  writewave         1       0.002       0.002     0.00
elaps:  KSV_init          1       0.000       0.000     0.00
elaps:  IterMD            1   19109.578   19109.578    99.46
elaps:  hsparse           1       0.050       0.050     0.00
elaps:  overlap           1       0.977       0.977     0.01
elaps:  IterSCF          34     561.216   19081.334    99.32
elaps:  kinefsm           2       0.506       1.012     0.01
elaps:  nlefsm            2       2.577       5.155     0.03
elaps:  DHSCF            35      15.040     526.410     2.74
elaps:  DHSCF1            1       0.133       0.133     0.00
elaps:  DHSCF2            1       5.597       5.597     0.03
elaps:  REORD           282       0.001       0.399     0.00
elaps:  POISON           36       0.301      10.849     0.06
elaps:  DHSCF3           35      14.574     510.086     2.65
elaps:  rhoofd           35       6.507     227.741     1.19
elaps:  cellXC           35       0.435      15.216     0.08
elaps:  vmat             35       7.135     249.713     1.30
elaps:  MolMec            2       0.000       0.000     0.00
elaps:  diagon           34     546.200   18570.815    96.66
elaps:  c-eigval       7975       0.844    6733.982    35.05
elaps:  c-buildHS      7975       0.018     144.847     0.75
elaps:  cdiag         15829       0.859   13599.677    70.78
elaps:  cdiag1        15829       0.054     849.998     4.42
elaps:  cdiag2        15829       0.241    3807.308    19.82
elaps:  cdiag3        15829       0.497    7874.806    40.99
elaps:  cdiag4        15829       0.029     464.197     2.42
elaps:  c-eigvec       7854       0.905    7106.993    36.99
elaps:  c-buildD       7854       0.614    4825.300    25.12
elaps:  DHSCF4            1      10.312      10.312     0.05
elaps:  dfscf             1       9.792       9.792     0.05
elaps:  overfsm           1       0.059       0.059     0.00
elaps:  optical           1       0.000       0.000     0.00
  
>> End of run:  28-APR-2016  23:06:32
