Siesta Version:                                        siesta-3.2-pl-3
Architecture  : x86_64-unknown-linux-gnu--unknown
Compiler flags: mpiifort -g -O2 -fPIC -xSSE4.1 -fp-model source -shared-intel 
PARALLEL version

* Running on    8 nodes in parallel
>> Start of run:  27-APR-2016  14:49:11

                           ***********************       
                           *  WELCOME TO SIESTA  *       
                           ***********************       

reinit: Reading from standard input
************************** Dump of input data file ****************************
#(1) General system descriptors
SystemName            GRP_doping    # Descriptive name of the system
SystemLabel           GRP_doping    # Short name for naming files
%include STRUCT.fdf
%include KPT.fdf
%include BASIS.fdf
#%include TS.fdf # for transiesta calculation
#(4) DFT, Grid, SCF
XC.functional         GGA           # LDA or GGA (default = LDA)
XC.authors            PBE           # CA (Ceperley-Aldr) = PZ
                                    #    (Perdew-Zunger) - LDA - Default
                                    # PW92 (Perdew-Wang-92) - LDA
                                    # PBE (Perdew-Burke-Ernzerhof) - GGA
MeshCutoff            200.000000    Ry      # Default: 50.0 Ry ~ 0.444 Bohr
                                    #         100.0 Ry ~ 0.314 Bohr
MaxSCFIterations      500           # Default: 50
DM.MixingWeight       0.05          # Default: 0.25
DM.NumberPulay        10            # Default: 0
DM.PulayOnFile        F             # SystemLabel.P1, SystemLabel.P2
DM.Tolerance          1.d-4         # Default: 1.d-4
DM.UseSaveDM          .true.        # because of the bug
SCFMustConverge       .true.
NeglNonOverlapInt     F             # Default: F
#(5) Eigenvalue problem: order-N or diagonalization
SolutionMethod        Diagon        # or Transiesta
ElectronicTemperature 300.0 K       # Default: 300.0 K
#(6) Molecular dynamics and relaxations
#MD.TypeOfRun          CG            # Type of dynamics:
#MD.VariableCell       F
#MD.NumCGsteps         0           # 0 for single-point / 100 for gopt
#MD.MaxCGDispl         0.2 Bohr      # Default: 0.2 Bohr
#MD.MaxForceTol        0.02 eV/Ang   # Default: 0.04 eV/Ang
#MD.MaxStressTol       1.0 GPa       # Default: 1.0 GPa
# Geometry Constraints
#%block GeometryConstraints
#	position from 1 to 44
#%endblock GeometryConstraints
BandLinesScale   pi/a
%block BandLines
 1   0.00000000  0.00000000  0.00000000
50   0.00000000  0.07809418  0.00000000
50   0.04509075  0.07809242  0.00000000
20   0.00000000  0.00000000  0.00000000
%endblock BandLines
************************** End of input data file *****************************

reinit: -----------------------------------------------------------------------
reinit: System Name: GRP_doping
reinit: -----------------------------------------------------------------------
reinit: System Label: GRP_doping                                                  
reinit: -----------------------------------------------------------------------

initatom: Reading input for the pseudopotentials and atomic orbitals ----------
 Species number:            1  Label: B Atomic number:           5
 Species number:            2  Label: C Atomic number:           6
Ground state valence configuration:   2s02  2p01
Reading pseudopotential information in formatted form from B.psf

Valence configuration for pseudopotential generation:
2s( 2.00) rc: 1.74
2p( 1.00) rc: 1.74
3d( 0.00) rc: 1.74
4f( 0.00) rc: 1.74
Ground state valence configuration:   2s02  2p02
Reading pseudopotential information in formatted form from C.psf

Valence configuration for pseudopotential generation:
2s( 2.00) rc: 1.54
2p( 2.00) rc: 1.54
3d( 0.00) rc: 1.54
4f( 0.00) rc: 1.54
For B, standard SIESTA heuristics set lmxkb to 3
 (one more than the basis l, including polarization orbitals).
Use PS.lmax or PS.KBprojectors blocks to override.
For C, standard SIESTA heuristics set lmxkb to 3
 (one more than the basis l, including polarization orbitals).
Use PS.lmax or PS.KBprojectors blocks to override.

<basis_specs>
===============================================================================
B                    Z=   5    Mass=  10.810        Charge= 0.17977+309
Lmxo=1 Lmxkb= 3    BasisType=split      Semic=F
L=0  Nsemic=0  Cnfigmx=2
          n=1  nzeta=2  polorb=0
            splnorm:   0.15000    
               vcte:    0.0000    
               rinn:    0.0000    
                rcs:    0.0000      0.0000    
            lambdas:    1.0000      1.0000    
L=1  Nsemic=0  Cnfigmx=2
          n=1  nzeta=2  polorb=1
            splnorm:   0.15000    
               vcte:    0.0000    
               rinn:    0.0000    
                rcs:    0.0000      0.0000    
            lambdas:    1.0000      1.0000    
-------------------------------------------------------------------------------
L=0  Nkbl=1  erefs: 0.17977+309
L=1  Nkbl=1  erefs: 0.17977+309
L=2  Nkbl=1  erefs: 0.17977+309
L=3  Nkbl=1  erefs: 0.17977+309
===============================================================================
</basis_specs>

atom: Called for B                     (Z =   5)

read_vps: Pseudopotential generation method:
read_vps: ATM3      Troullier-Martins                       
Total valence charge:    3.00000

read_vps: Pseudopotential includes a core correction:
read_vps: Pseudo-core for xc-correction

xc_check: Exchange-correlation functional:
xc_check: GGA Perdew, Burke & Ernzerhof 1996
V l=0 = -2*Zval/r beyond r=  1.7165
V l=1 = -2*Zval/r beyond r=  1.7165
V l=2 = -2*Zval/r beyond r=  1.7165
V l=3 = -2*Zval/r beyond r=  1.6951
All V_l potentials equal beyond r=  1.7165
This should be close to max(r_c) in ps generation
All pots = -2*Zval/r beyond r=  1.7165

VLOCAL1: 99.0% of the norm of Vloc inside     14.733 Ry
VLOCAL1: 99.9% of the norm of Vloc inside     33.577 Ry
atom: Maximum radius for 4*pi*r*r*local-pseudopot. charge    2.04484
atom: Maximum radius for r*vlocal+2*Zval:    1.75994
GHOST: No ghost state for L =  0
GHOST: No ghost state for L =  1
GHOST: No ghost state for L =  2
GHOST: No ghost state for L =  3

KBgen: Kleinman-Bylander projectors: 
   l= 0   rc=  1.897051   el= -0.693730   Ekb=  4.595746   kbcos=  0.286105
   l= 1   rc=  1.920920   el= -0.265236   Ekb= -2.350715   kbcos= -0.315747
   l= 2   rc=  2.044840   el=  0.002055   Ekb= -0.690767   kbcos= -0.013822
   l= 3   rc=  2.149707   el=  0.003188   Ekb= -0.315358   kbcos= -0.002055

KBgen: Total number of  Kleinman-Bylander projectors:   16
atom: -------------------------------------------------------------------------

atom: SANKEY-TYPE ORBITALS:
atom: Selected multiple-zeta basis: split     

SPLIT: Orbitals with angular momentum L= 0

SPLIT: Basis orbitals for state 2s

SPLIT: PAO cut-off radius determined from an
SPLIT: energy shift=  0.007350 Ry

   izeta = 1
                 lambda =    1.000000
                     rc =    5.422032
                 energy =   -0.686029
                kinetic =    0.576707
    potential(screened) =   -1.262736
       potential(ionic) =   -3.271094

   izeta = 2
                 rmatch =    4.222573
              splitnorm =    0.150000
                 energy =   -0.602132
                kinetic =    0.858975
    potential(screened) =   -1.461107
       potential(ionic) =   -3.582536

SPLIT: Orbitals with angular momentum L= 1

SPLIT: Basis orbitals for state 2p

SPLIT: PAO cut-off radius determined from an
SPLIT: energy shift=  0.007350 Ry

   izeta = 1
                 lambda =    1.000000
                     rc =    6.790259
                 energy =   -0.258578
                kinetic =    1.481412
    potential(screened) =   -1.739989
       potential(ionic) =   -3.657461

   izeta = 2
                 rmatch =    4.608740
              splitnorm =    0.150000
                 energy =   -0.173757
                kinetic =    2.186690
    potential(screened) =   -2.360447
       potential(ionic) =   -4.464260

POLgen: Perturbative polarization orbital with L=  2

POLgen: Polarization orbital for state 2p

   izeta = 1
                     rc =    6.790259
                 energy =    0.684082
                kinetic =    1.471481
    potential(screened) =   -0.787399
       potential(ionic) =   -2.406985
atom: Total number of Sankey-type orbitals: 13

atm_pop: Valence configuration (for local Pseudopot. screening):
 2s( 2.00)                                                            
 2p( 1.00)                                                            
Vna: chval, zval:    3.00000   3.00000

Vna:  Cut-off radius for the neutral-atom potential:   6.790259
comcore: Pseudo-core radius Rcore=  2.122997

atom: _________________________________________________________________________

<basis_specs>
===============================================================================
C                    Z=   6    Mass=  12.010        Charge= 0.17977+309
Lmxo=1 Lmxkb= 3    BasisType=split      Semic=F
L=0  Nsemic=0  Cnfigmx=2
          n=1  nzeta=2  polorb=0
            splnorm:   0.15000    
               vcte:    0.0000    
               rinn:    0.0000    
                rcs:    0.0000      0.0000    
            lambdas:    1.0000      1.0000    
L=1  Nsemic=0  Cnfigmx=2
          n=1  nzeta=2  polorb=1
            splnorm:   0.15000    
               vcte:    0.0000    
               rinn:    0.0000    
                rcs:    0.0000      0.0000    
            lambdas:    1.0000      1.0000    
-------------------------------------------------------------------------------
L=0  Nkbl=1  erefs: 0.17977+309
L=1  Nkbl=1  erefs: 0.17977+309
L=2  Nkbl=1  erefs: 0.17977+309
L=3  Nkbl=1  erefs: 0.17977+309
===============================================================================
</basis_specs>

atom: Called for C                     (Z =   6)

read_vps: Pseudopotential generation method:
read_vps: ATM3      Troullier-Martins                       
Total valence charge:    4.00000

read_vps: Pseudopotential includes a core correction:
read_vps: Pseudo-core for xc-correction

xc_check: Exchange-correlation functional:
xc_check: GGA Perdew, Burke & Ernzerhof 1996
V l=0 = -2*Zval/r beyond r=  1.5227
V l=1 = -2*Zval/r beyond r=  1.5227
V l=2 = -2*Zval/r beyond r=  1.5227
V l=3 = -2*Zval/r beyond r=  1.5038
All V_l potentials equal beyond r=  1.5227
This should be close to max(r_c) in ps generation
All pots = -2*Zval/r beyond r=  1.5227

VLOCAL1: 99.0% of the norm of Vloc inside     18.722 Ry
VLOCAL1: 99.9% of the norm of Vloc inside     42.668 Ry
atom: Maximum radius for 4*pi*r*r*local-pseudopot. charge    1.83678
atom: Maximum radius for r*vlocal+2*Zval:    1.58088
GHOST: No ghost state for L =  0
GHOST: No ghost state for L =  1
GHOST: No ghost state for L =  2
GHOST: No ghost state for L =  3

KBgen: Kleinman-Bylander projectors: 
   l= 0   rc=  1.704034   el= -1.009801   Ekb=  5.335044   kbcos=  0.316824
   l= 1   rc=  1.704034   el= -0.388707   Ekb= -3.785862   kbcos= -0.366464
   l= 2   rc=  1.791422   el=  0.001971   Ekb= -0.970471   kbcos= -0.009212
   l= 3   rc=  1.859892   el=  0.003065   Ekb= -0.399525   kbcos= -0.001223

KBgen: Total number of  Kleinman-Bylander projectors:   16
atom: -------------------------------------------------------------------------

atom: SANKEY-TYPE ORBITALS:
atom: Selected multiple-zeta basis: split     

SPLIT: Orbitals with angular momentum L= 0

SPLIT: Basis orbitals for state 2s

SPLIT: PAO cut-off radius determined from an
SPLIT: energy shift=  0.007350 Ry

   izeta = 1
                 lambda =    1.000000
                     rc =    4.632753
                 energy =   -1.002270
                kinetic =    0.855760
    potential(screened) =   -1.858031
       potential(ionic) =   -5.417575

   izeta = 2
                 rmatch =    3.431921
              splitnorm =    0.150000
                 energy =   -0.867111
                kinetic =    1.300804
    potential(screened) =   -2.167915
       potential(ionic) =   -5.962684

SPLIT: Orbitals with angular momentum L= 1

SPLIT: Basis orbitals for state 2p

SPLIT: PAO cut-off radius determined from an
SPLIT: energy shift=  0.007350 Ry

   izeta = 1
                 lambda =    1.000000
                     rc =    5.658549
                 energy =   -0.381140
                kinetic =    2.399701
    potential(screened) =   -2.780841
       potential(ionic) =   -6.206085

   izeta = 2
                 rmatch =    3.653288
              splitnorm =    0.150000
                 energy =   -0.249149
                kinetic =    3.542762
    potential(screened) =   -3.791911
       potential(ionic) =   -7.581078

POLgen: Perturbative polarization orbital with L=  2

POLgen: Polarization orbital for state 2p

   izeta = 1
                     rc =    5.658549
                 energy =    1.109913
                kinetic =    2.304789
    potential(screened) =   -1.194876
       potential(ionic) =   -4.013592
atom: Total number of Sankey-type orbitals: 13

atm_pop: Valence configuration (for local Pseudopot. screening):
 2s( 2.00)                                                            
 2p( 2.00)                                                            
Vna: chval, zval:    4.00000   4.00000

Vna:  Cut-off radius for the neutral-atom potential:   5.658549
comcore: Pseudo-core radius Rcore=  1.791422

atom: _________________________________________________________________________

prinput: Basis input ----------------------------------------------------------

PAO.BasisType split     

%block ChemicalSpeciesLabel
    1    5 B                       # Species index, atomic number, species label
    2    6 C                       # Species index, atomic number, species label
%endblock ChemicalSpeciesLabel

%block PAO.Basis                 # Define Basis set
B                     2                    # Species label, number of l-shells
 n=2   0   2                         # n, l, Nzeta 
   5.422      4.223   
   1.000      1.000   
 n=2   1   2 P   1                   # n, l, Nzeta, Polarization, NzetaPol
   6.790      4.609   
   1.000      1.000   
C                     2                    # Species label, number of l-shells
 n=2   0   2                         # n, l, Nzeta 
   4.633      3.432   
   1.000      1.000   
 n=2   1   2 P   1                   # n, l, Nzeta, Polarization, NzetaPol
   5.659      3.653   
   1.000      1.000   
%endblock PAO.Basis

prinput: ----------------------------------------------------------------------

coor:   Atomic-coordinates input format  =     Fractional

siesta: Atomic coordinates (Bohr) and species
siesta:     -0.02582   2.59549   0.00000  1        1
siesta:     -0.02582   5.28395   0.00000  1        2
siesta:     -0.02582  10.66124   0.00000  1        3
siesta:     -0.02582  13.34970   0.00000  1        4
siesta:     -0.02582  18.72698   0.00000  1        5
siesta:     -0.02582  21.41544   0.00000  1        6
siesta:      2.30256  22.75985   0.00000  1        7
siesta:      2.30256  25.44831   0.00000  1        8
siesta:     -7.01096  14.69411   0.00000  1        9
siesta:     -4.68258  21.41544   0.00000  1       10
siesta:     -2.35420  22.75985   0.00000  1       11
siesta:     -2.35420  25.44831   0.00000  1       12
siesta:     -9.33934  21.41544   0.00000  1       13
siesta:     -7.01096  22.75985   0.00000  1       14
siesta:     -7.01096  25.44831   0.00000  1       15
siesta:    -11.66772  22.75985   0.00000  1       16
siesta:    -11.66772  25.44831   0.00000  1       17
siesta:     -9.33934  26.79272   0.00000  1       18
siesta:     -0.02582  26.79272   0.00000  1       19
siesta:     -4.68258  26.79272   0.00000  1       20
siesta:     -2.35420  38.89134   0.00000  2       21
siesta:     -2.35420  41.57980   0.00000  2       22
siesta:      2.30256  38.89134   0.00000  2       23
siesta:      2.30256  41.57980   0.00000  2       24
siesta:      4.63094  34.85847   0.00000  2       25
siesta:      4.63094  37.54693   0.00000  2       26
siesta:      6.95932  30.82560   0.00000  2       27
siesta:      6.95932  33.51406   0.00000  2       28
siesta:      9.28770  26.79272   0.00000  2       29
siesta:      9.28770  29.48119   0.00000  2       30
siesta:     -4.68258  34.85847   0.00000  2       31
siesta:     -4.68258  37.54693   0.00000  2       32
siesta:      2.30256   6.62836   0.00000  2       33
siesta:      2.30256   9.31683   0.00000  2       34
siesta:      4.63094  10.66124   0.00000  2       35
siesta:      4.63094  13.34970   0.00000  2       36
siesta:      6.95932  14.69411   0.00000  2       37
siesta:      6.95932  17.38257   0.00000  2       38
siesta:      9.28770  18.72698   0.00000  2       39
siesta:      9.28770  21.41544   0.00000  2       40
siesta:     11.61608  22.75985   0.00000  2       41
siesta:     11.61608  25.44831   0.00000  2       42
siesta:     -2.35420   6.62836   0.00000  2       43
siesta:     -2.35420   9.31683   0.00000  2       44
siesta:      2.30256  14.69411   0.00000  2       45
siesta:      2.30256  17.38257   0.00000  2       46
siesta:      4.63094  18.72698   0.00000  2       47
siesta:      4.63094  21.41544   0.00000  2       48
siesta:      6.95932  22.75985   0.00000  2       49
siesta:      6.95932  25.44831   0.00000  2       50
siesta:     -4.68258  10.66124   0.00000  2       51
siesta:     -4.68258  13.34970   0.00000  2       52
siesta:     -2.35420  14.69411   0.00000  2       53
siesta:     -2.35420  17.38257   0.00000  2       54
siesta:     -7.01096  17.38257   0.00000  2       55
siesta:     -4.68258  18.72698   0.00000  2       56
siesta:     -9.33934  18.72698   0.00000  2       57
siesta:     -9.33934  29.48119   0.00000  2       58
siesta:      4.63094  26.79272   0.00000  2       59
siesta:      4.63094  29.48119   0.00000  2       60
siesta:     -0.02582  29.48119   0.00000  2       61
siesta:     -4.68258  29.48119   0.00000  2       62
siesta:      2.30256  30.82560   0.00000  2       63
siesta:      2.30256  33.51406   0.00000  2       64
siesta:     -2.35420  30.82560   0.00000  2       65
siesta:     -2.35420  33.51406   0.00000  2       66
siesta:     -7.01096  30.82560   0.00000  2       67
siesta:     -7.01096  33.51406   0.00000  2       68
siesta:     -0.02582  34.85847   0.00000  2       69
siesta:     -0.02582  37.54693   0.00000  2       70
siesta:     -0.02582  42.92421   0.00000  2       71
siesta:     -0.02582  45.61267   0.00000  2       72

siesta: System type = slab      

initatomlists: Number of atoms, orbitals, and projectors:     72   936  1152

siesta: ******************** Simulation parameters ****************************
siesta:
siesta: The following are some of the parameters of the simulation.
siesta: A complete list of the parameters used, including default values,
siesta: can be found in file out.fdf
siesta:
redata: Non-Collinear-spin run           =     F
redata: SpinPolarized (Up/Down) run      =     F
redata: Number of spin components        =     1
redata: Long output                      =     F
redata: Number of Atomic Species         =        2
redata: Charge density info will appear in .RHO file
redata: Write Mulliken Pop.              =     NO
redata: Mesh Cutoff                      =   200.0000  Ry
redata: Net charge of the system         =     0.0000 |e|
redata: Max. number of SCF Iter          =      500
redata: SCF convergence failure will abort job
redata: Performing Pulay mixing using    =    10 iterations
redata: Mix DM in first SCF step ?       =     F
redata: Write Pulay info on disk?        =     F
redata: Discard 1st Pulay DM after  kick =     F
redata: New DM Mixing Weight             =     0.0500
redata: New DM Occupancy tolerance       = 0.000000000001
redata: No kicks to SCF
redata: DM Mixing Weight for Kicks       =     0.5000
redata: DM Tolerance for SCF             =     0.000100
redata: Require Energy convergence for SCF =     F
redata: DM Energy tolerance for SCF      =     0.000100 eV
redata: Require Harris convergence for SCF =     F
redata: DM Harris energy tolerance for SCF =     0.000100 eV
redata: Using Saved Data (generic)   =     F
redata: Use continuation files for DM    =     T
redata: Neglect nonoverlap interactions  =     F
redata: Method of Calculation            =     Diagonalization
redata: Divide and Conquer               =     T
redata: Electronic Temperature           =     0.0019  Ry
redata: Fix the spin of the system       =     F
redata: Dynamics option                  =     Verlet MD run
redata: Initial MD time step             =        1
redata:   Final MD time step             =        1
redata: Length of MD time step           =     1.0000  fs
redata: Initial Temperature of MD run    =     0.0000  K
redata: Perform a MD quench              =     F
redata: ***********************************************************************
Total number of electrons:   268.000000
Total ionic charge:   268.000000

* ProcessorY, Blocksize:    2  24

k-point displ. along   1 input, could be:     0.50    0.00
k-point displ. along   2 input, could be:     0.50    0.00
 Kpoints in:          231 . Kpoints trimmed:          231

siesta: k-grid: Number of k-points =   231
siesta: k-grid: Cutoff (effective) =     5.000 Ang
siesta: k-grid: Supercell and displacements
siesta: k-grid:   21   0   0      0.500
siesta: k-grid:    0  21   0      0.500
siesta: k-grid:    0   0   1      0.000
Naive supercell factors:     2    2    2

superc: Internal auxiliary supercell:     2 x     2 x     2  =       8
superc: Number of atoms, orbitals, and projectors:    576   7488   9216

* Maximum dynamic memory allocated =     4 MB

siesta:                 ==============================
                            Begin MD step =      1
                        ==============================

superc: Internal auxiliary supercell:     2 x     2 x     2  =       8
superc: Number of atoms, orbitals, and projectors:    576   7488   9216

outcell: Unit cell vectors (Ang):
       12.804619    7.392750    0.000000
        0.000000   14.785500    0.000000
        0.000000    0.000000   10.000000

outcell: Cell vector modules (Ang)   :   14.785500   14.785500   10.000000
outcell: Cell angles (23,13,12) (deg):     90.0000     90.0000     60.0000
outcell: Cell volume (Ang**3)        :   1893.2269
New_DM. Step:     1
Initializing Density Matrix...

InitMesh: MESH =   120 x   120 x    90 =     1296000
InitMesh: Mesh cutoff (required, used) =   200.000   223.865 Ry

* Maximum dynamic memory allocated =   224 MB

stepf: Fermi-Dirac step function

siesta: Program's energy decomposition (eV):
siesta: Ebs     =     -5529.680569
siesta: Eions   =     15841.876847
siesta: Ena     =      4245.856654
siesta: Ekin    =      5323.417823
siesta: Enl     =       806.959270
siesta: DEna    =        -0.000008
siesta: DUscf   =         0.000000
siesta: DUext   =         0.000000
siesta: Exc     =     -4201.284949
siesta: eta*DQ  =         0.000000
siesta: Emadel  =         0.000000
siesta: Emeta   =         0.000000
siesta: Emolmec =         0.000000
siesta: Ekinion =         0.000000
siesta: Eharris =     -9407.031139
siesta: Etot    =     -9666.928057
siesta: FreeEng =     -9666.928057

siesta: iscf   Eharris(eV)      E_KS(eV)   FreeEng(eV)   dDmax  Ef(eV)
siesta:    1    -9407.0311    -9666.9281    -9666.9281  8.0799 -8.4009
timer: Routine,Calls,Time,% = IterSCF        1    4677.064  99.75
elaps: Routine,Calls,Wall,% = IterSCF        1     585.405  99.75
siesta:    2   -14140.7800    -8649.8213    -8649.8679 21.9359 -3.0005
siesta:    3    -9339.9453    -9525.6450    -9525.7212  3.4785 -6.6987
siesta:    4    -9325.2255    -9392.9772    -9392.9873  1.5816 -5.3709
siesta:    5    -9279.2759    -9322.0902    -9322.1250  1.1086 -5.2110
siesta:    6    -9258.2909    -9271.8166    -9271.8496  0.7532 -5.1493
siesta:    7    -9255.7969    -9259.0011    -9259.0220  0.6825 -5.1065
siesta:    8    -9249.6347    -9243.6849    -9243.7162  0.5102 -5.1556
siesta:    9    -9251.0165    -9231.8997    -9231.9683  0.3940 -5.0797
siesta:   10    -9250.5738    -9225.5664    -9225.6507  0.3439 -5.0349
siesta:   11    -9249.7654    -9221.2409    -9221.3059  0.2920 -5.0051
siesta:   12    -9248.6482    -9220.5041    -9220.5696  0.2225 -5.0117
siesta:   13    -9248.5762    -9221.3492    -9221.3993  0.1834 -5.0137
siesta:   14    -9247.8298    -9230.1576    -9230.2038  0.1564 -5.0496
siesta:   15    -9247.6210    -9237.3422    -9237.3866  0.1209 -5.0615
siesta:   16    -9247.5314    -9240.2867    -9240.3407  0.0734 -5.0625
siesta:   17    -9247.4800    -9243.0265    -9243.0836  0.0381 -5.0709
siesta:   18    -9247.4642    -9244.9244    -9244.9824  0.0425 -5.0763
siesta:   19    -9247.4512    -9245.5995    -9245.6545  0.0293 -5.0630
siesta:   20    -9247.4515    -9246.2336    -9246.2885  0.0211 -5.0489
siesta:   21    -9247.4487    -9246.8603    -9246.9150  0.0156 -5.0485
siesta:   22    -9247.4458    -9247.4032    -9247.4586  0.0117 -5.0418
siesta:   23    -9247.4462    -9247.6472    -9247.7047  0.0055 -5.0446
siesta:   24    -9247.4452    -9247.6699    -9247.7259  0.0036 -5.0447
siesta:   25    -9247.4455    -9247.7333    -9247.7897  0.0032 -5.0458
siesta:   26    -9247.4453    -9247.7569    -9247.8129  0.0025 -5.0457
siesta:   27    -9247.4452    -9247.6588    -9247.7151  0.0017 -5.0460
siesta:   28    -9247.4453    -9247.4387    -9247.4949  0.0012 -5.0462
siesta:   29    -9247.4452    -9247.3939    -9247.4499  0.0011 -5.0461
siesta:   30    -9247.4453    -9247.3753    -9247.4314  0.0007 -5.0463
siesta:   31    -9247.4452    -9247.3973    -9247.4533  0.0006 -5.0463
siesta:   32    -9247.4452    -9247.4253    -9247.4814  0.0005 -5.0463
siesta:   33    -9247.4452    -9247.4365    -9247.4926  0.0003 -5.0464
siesta:   34    -9247.4452    -9247.4287    -9247.4847  0.0002 -5.0464
siesta:   35    -9247.4452    -9247.4314    -9247.4875  0.0001 -5.0464
siesta:   36    -9247.4452    -9247.4354    -9247.4915  0.0001 -5.0464

siesta: E_KS(eV) =            -9247.4387

siesta: E_KS - E_eggbox =     -9247.4387

siesta: Atomic forces (eV/Ang):
----------------------------------------
   Tot   -0.119660    0.092021    0.000000
----------------------------------------
   Max  557.863707
   Res  148.572466    sqrt( Sum f_i^2 / 3N )
----------------------------------------
   Max  557.863707    constrained

Stress-tensor-Voigt (kbar):     -809.14    -2695.25       -0.61        2.38        0.00        0.00
(Free)E + p*V (eV/cell)    -7866.9376
Target enthalpy (eV/cell)    -9247.4948

siesta: Stress tensor (static) (eV/Ang**3):
        -0.505020    0.001486    0.000000
         0.001486   -1.682226    0.000000
         0.000000    0.000000   -0.000379

siesta: Pressure (static):       1168.33350122  kBar

siesta: Stress tensor (total) (eV/Ang**3):
        -0.505020    0.001486    0.000000
         0.001486   -1.682226    0.000000
         0.000000    0.000000   -0.000379

siesta: Pressure (total):       1168.33350122  kBar

siesta: Temp_ion =       0.000 K

* Maximum dynamic memory allocated =   241 MB
Computing bands...

siesta: Program's energy decomposition (eV):
siesta: Ebs     =     -4136.938620
siesta: Eions   =     15841.876847
siesta: Ena     =      4245.856654
siesta: Ekin    =      8206.819899
siesta: Enl     =      -799.905308
siesta: DEna    =      -793.456134
siesta: DUscf   =       108.633729
siesta: DUext   =         0.000000
siesta: Exc     =     -4373.510740
siesta: eta*DQ  =         0.000000
siesta: Emadel  =         0.000000
siesta: Emeta   =         0.000000
siesta: Emolmec =         0.000000
siesta: Ekinion =         0.000000
siesta: Eharris =     -9247.445226
siesta: Etot    =     -9247.438746
siesta: FreeEng =     -9247.494817

siesta: Final energy (eV):
siesta:  Band Struct. =   -4136.938620
siesta:       Kinetic =    8206.819899
siesta:       Hartree =   27000.134124
siesta:    Ext. field =       0.000000
siesta:   Exch.-corr. =   -4373.510740
siesta:  Ion-electron =  -61889.692042
siesta:       Ion-ion =   21808.810013
siesta:       Ekinion =       0.000000
siesta:         Total =   -9247.438746

siesta: Atomic forces (eV/Ang):
siesta:      1   -0.004602  410.881279    0.000000
siesta:      2   -0.269820 -112.939198    0.000000
siesta:      3    0.088003  394.733635    0.000000
siesta:      4   -0.105209 -113.740924    0.000000
siesta:      5    0.179254  412.037888    0.000000
siesta:      6   -0.639840   -1.180513    0.000000
siesta:      7    3.455610   -3.055895    0.000000
siesta:      8    3.551989    3.186919    0.000000
siesta:      9    0.634167   -2.219541    0.000000
siesta:     10    0.364852   -4.947596    0.000000
siesta:     11   -0.012292   -0.178630    0.000000
siesta:     12    0.236663    0.195436    0.000000
siesta:     13   -4.710653   -5.989296    0.000000
siesta:     14    0.748009    0.134870    0.000000
siesta:     15    0.650937   -0.364287    0.000000
siesta:     16   -5.992228   -2.838742    0.000000
siesta:     17   -5.967237    2.968498    0.000000
siesta:     18   -4.696763    6.587985    0.000000
siesta:     19   -0.748729    2.943518    0.000000
siesta:     20    0.360992    4.972425    0.000000
siesta:     21    3.872960  128.827351    0.000000
siesta:     22  -25.015760 -550.043290    0.000000
siesta:     23   -4.082132  129.406494    0.000000
siesta:     24   24.450205 -549.956497    0.000000
siesta:     25   26.571560    3.389991    0.000000
siesta:     26   34.172334 -547.488755    0.000000
siesta:     27    2.453457   -0.037637    0.000000
siesta:     28   -2.164810    2.316527    0.000000
siesta:     29    1.912946    1.493576    0.000000
siesta:     30   -0.996545    0.829627    0.000000
siesta:     31  -25.920478    3.910009    0.000000
siesta:     32  -34.281491 -548.151356    0.000000
siesta:     33    8.472403  544.814321    0.000000
siesta:     34   -6.726351 -117.651483    0.000000
siesta:     35   35.216802  546.617296    0.000000
siesta:     36   26.735541   -5.292474    0.000000
siesta:     37   -2.287019   -2.189939    0.000000
siesta:     38    2.409881    0.018166    0.000000
siesta:     39   -1.151930   -0.926840    0.000000
siesta:     40    2.524414   -1.676137    0.000000
siesta:     41   -0.517116    6.094937    0.000000
siesta:     42    0.501298   -5.716907    0.000000
siesta:     43   -8.295590  545.340770    0.000000
siesta:     44    6.514615 -117.288846    0.000000
siesta:     45   17.088636  551.435821    0.000000
siesta:     46   21.309118   -2.273185    0.000000
siesta:     47   -0.874613    1.188698    0.000000
siesta:     48    2.668714   -1.484433    0.000000
siesta:     49   -0.039932    0.269927    0.000000
siesta:     50    0.059055   -0.174253    0.000000
siesta:     51  -34.809273  546.847926    0.000000
siesta:     52  -24.530122   -8.014849    0.000000
siesta:     53  -15.691652  552.202213    0.000000
siesta:     54  -21.392813   -2.913664    0.000000
siesta:     55   -4.453367    1.416389    0.000000
siesta:     56    1.806611   -2.361402    0.000000
siesta:     57    3.126732   -2.382442    0.000000
siesta:     58    2.615800    1.859149    0.000000
siesta:     59    2.583103    1.541017    0.000000
siesta:     60   -0.827288   -1.169534    0.000000
siesta:     61    0.118580 -420.097294    0.000000
siesta:     62    1.763967    1.868782    0.000000
siesta:     63   20.566394    4.463022    0.000000
siesta:     64   32.269742 -557.707987    0.000000
siesta:     65  -20.804935    4.863084    0.000000
siesta:     66  -32.574354 -557.863707    0.000000
siesta:     67   -2.922803    2.136670    0.000000
siesta:     68    1.881031    1.434168    0.000000
siesta:     69    0.016230  122.099212    0.000000
siesta:     70   -0.045328 -410.224355    0.000000
siesta:     71   -0.297584  126.036319    0.000000
siesta:     72   -0.221604 -410.730008    0.000000
siesta: ----------------------------------------
siesta:    Tot   -0.119660    0.092021    0.000000

siesta: Stress tensor (static) (eV/Ang**3):
siesta:    -0.505020    0.001486    0.000000
siesta:     0.001486   -1.682226    0.000000
siesta:     0.000000    0.000000   -0.000379

siesta: Cell volume =       1893.226884 Ang**3

siesta: Pressure (static):
siesta:                Solid            Molecule  Units
siesta:           0.00794201          0.11429220  Ry/Bohr**3
siesta:           0.72920853         10.49392096  eV/Ang**3
siesta:        1168.33350122      16813.29669417  kBar
(Free)E+ p_basis*V_orbitals  =       -9210.438131
(Free)Eharris+ p_basis*V_orbitals  =       -9210.447953

siesta: Electric dipole (a.u.)  =    0.000000    0.000000    0.000000
siesta: Electric dipole (Debye) =    0.000000    0.000000    0.000000

* Maximum dynamic memory allocated : Node    0 =   241 MB
* Maximum dynamic memory allocated : Node    1 =    85 MB
* Maximum dynamic memory allocated : Node    2 =    87 MB
* Maximum dynamic memory allocated : Node    3 =   227 MB
* Maximum dynamic memory allocated : Node    4 =   228 MB
* Maximum dynamic memory allocated : Node    5 =    82 MB
* Maximum dynamic memory allocated : Node    6 =    85 MB
* Maximum dynamic memory allocated : Node    7 =   209 MB

* Maximum memory occured during matrixMtoO                    

timer: CPU execution times:
timer:  Routine       Calls   Time/call    Tot.time        %
timer:  siesta            1  166335.669  166335.669   100.00
timer:  Setup             1       3.059       3.059     0.00
timer:  bands             3     271.969     815.908     0.49
timer:  writewave         1       0.021       0.021     0.00
timer:  KSV_init          1       0.001       0.001     0.00
timer:  IterMD            1  165510.865  165510.865    99.50
timer:  hsparse           1       0.394       0.394     0.00
timer:  overlap           1       7.801       7.801     0.00
timer:  IterSCF          36    4590.904  165272.545    99.36
timer:  kinefsm           2       4.069       8.138     0.00
timer:  nlefsm            2      21.582      43.164     0.03
timer:  DHSCF            37     122.033    4515.205     2.71
timer:  DHSCF1            1       1.001       1.001     0.00
timer:  DHSCF2            1      44.956      44.956     0.03
timer:  REORD           298       0.011       3.152     0.00
timer:  POISON           38       2.417      91.846     0.06
timer:  DHSCF3           37     119.554    4423.509     2.66
timer:  rhoofd           37      25.741     952.435     0.57
timer:  cellXC           37       3.505     129.694     0.08
timer:  vmat             37      58.764    2174.276     1.31
timer:  MolMec            2       0.001       0.002     0.00
timer:  diagon           36    4467.858  160842.887    96.70
timer:  c-eigval       8437       6.748   56928.882    34.23
timer:  c-buildHS      8437       0.141    1188.966     0.71
timer:  cdiag         16753       6.966  116700.552    70.16
timer:  cdiag1        16753       0.434    7265.576     4.37
timer:  cdiag2        16753       1.921   32177.957    19.35
timer:  cdiag3        16753       3.966   66437.859    39.94
timer:  cdiag4        16753       0.231    3876.064     2.33
timer:  c-eigvec       8316       7.400   61534.335    36.99
timer:  c-buildD       8316       5.189   43149.676    25.94
timer:  DHSCF4            1      43.689      43.689     0.03
timer:  dfscf             1      41.006      41.006     0.02
timer:  overfsm           1       0.477       0.477     0.00
timer:  optical           1       5.094       5.094     0.00
  

elaps: ELAPSED times:
elaps:  Routine       Calls   Time/call    Tot.time        %
elaps:  siesta            1   20818.086   20818.086   100.00
elaps:  Setup             1       0.381       0.381     0.00
elaps:  bands             3      34.048     102.144     0.49
elaps:  writewave         1       0.003       0.003     0.00
elaps:  KSV_init          1       0.000       0.000     0.00
elaps:  IterMD            1   20714.888   20714.888    99.50
elaps:  hsparse           1       0.049       0.049     0.00
elaps:  overlap           1       0.982       0.982     0.00
elaps:  IterSCF          36     574.585   20685.072    99.36
elaps:  kinefsm           2       0.509       1.018     0.00
elaps:  nlefsm            2       2.898       5.796     0.03
elaps:  DHSCF            37      15.408     570.084     2.74
elaps:  DHSCF1            1       0.128       0.128     0.00
elaps:  DHSCF2            1       5.618       5.618     0.03
elaps:  REORD           298       0.001       0.422     0.00
elaps:  POISON           38       0.303      11.498     0.06
elaps:  DHSCF3           37      14.957     553.416     2.66
elaps:  rhoofd           37       6.728     248.921     1.20
elaps:  cellXC           37       0.438      16.203     0.08
elaps:  vmat             37       7.352     272.008     1.31
elaps:  MolMec            2       0.000       0.000     0.00
elaps:  diagon           36     559.223   20132.012    96.70
elaps:  c-eigval       8437       0.844    7122.966    34.22
elaps:  c-buildHS      8437       0.019     162.163     0.78
elaps:  cdiag         16753       0.854   14304.824    68.71
elaps:  cdiag1        16753       0.054     897.029     4.31
elaps:  cdiag2        16753       0.240    4026.467    19.34
elaps:  cdiag3        16753       0.497    8324.381    39.99
elaps:  cdiag4        16753       0.029     483.696     2.32
elaps:  c-eigvec       8316       0.895    7440.606    35.74
elaps:  c-buildD       8316       0.681    5663.651    27.21
elaps:  DHSCF4            1      10.636      10.636     0.05
elaps:  dfscf             1      10.094      10.094     0.05
elaps:  overfsm           1       0.062       0.062     0.00
elaps:  optical           1       0.000       0.000     0.00
  
>> End of run:  27-APR-2016  20:36:09
