Siesta Version:                                        siesta-3.2-pl-3
Architecture  : x86_64-unknown-linux-gnu--unknown
Compiler flags: mpiifort -g -O2 -fPIC -xSSE4.1 -fp-model source -shared-intel 
PARALLEL version

* Running on   12 nodes in parallel
>> Start of run:   2-MAY-2016  18:30:35

                           ***********************       
                           *  WELCOME TO SIESTA  *       
                           ***********************       

reinit: Reading from standard input
************************** Dump of input data file ****************************
#(1) General system descriptors
SystemName            GRP_doping    # Descriptive name of the system
SystemLabel           GRP_doping    # Short name for naming files
%include STRUCT.fdf
%include KPT.fdf
%include BASIS.fdf
#%include TS.fdf # for transiesta calculation
#(4) DFT, Grid, SCF
XC.functional         GGA           # LDA or GGA (default = LDA)
XC.authors            PBE           # CA (Ceperley-Aldr) = PZ
                                    #    (Perdew-Zunger) - LDA - Default
                                    # PW92 (Perdew-Wang-92) - LDA
                                    # PBE (Perdew-Burke-Ernzerhof) - GGA
MeshCutoff            200.000000    Ry      # Default: 50.0 Ry ~ 0.444 Bohr
                                    #         100.0 Ry ~ 0.314 Bohr
MaxSCFIterations      500           # Default: 50
DM.MixingWeight       0.05          # Default: 0.25
DM.NumberPulay        10            # Default: 0
DM.PulayOnFile        F             # SystemLabel.P1, SystemLabel.P2
DM.Tolerance          1.d-4         # Default: 1.d-4
DM.UseSaveDM          .true.        # because of the bug
SCFMustConverge       .true.
NeglNonOverlapInt     F             # Default: F
#(5) Eigenvalue problem: order-N or diagonalization
SolutionMethod        Diagon        # or Transiesta
ElectronicTemperature 300.0 K       # Default: 300.0 K
#(6) Molecular dynamics and relaxations
#MD.TypeOfRun          CG            # Type of dynamics:
#MD.VariableCell       F
#MD.NumCGsteps         0           # 0 for single-point / 100 for gopt
#MD.MaxCGDispl         0.2 Bohr      # Default: 0.2 Bohr
#MD.MaxForceTol        0.02 eV/Ang   # Default: 0.04 eV/Ang
#MD.MaxStressTol       1.0 GPa       # Default: 1.0 GPa
# Geometry Constraints
#%block GeometryConstraints
#	position from 1 to 44
#%endblock GeometryConstraints
BandLinesScale   pi/a
%block BandLines
 1   0.00000000  0.00000000  0.00000000
50   0.00000000  0.07809418  0.00000000
50   0.04509075  0.07809242  0.00000000
20   0.00000000  0.00000000  0.00000000
%endblock BandLines
************************** End of input data file *****************************

reinit: -----------------------------------------------------------------------
reinit: System Name: GRP_doping
reinit: -----------------------------------------------------------------------
reinit: System Label: GRP_doping                                                  
reinit: -----------------------------------------------------------------------

initatom: Reading input for the pseudopotentials and atomic orbitals ----------
 Species number:            1  Label: B Atomic number:           5
 Species number:            2  Label: C Atomic number:           6
Ground state valence configuration:   2s02  2p01
Reading pseudopotential information in formatted form from B.psf

Valence configuration for pseudopotential generation:
2s( 2.00) rc: 1.74
2p( 1.00) rc: 1.74
3d( 0.00) rc: 1.74
4f( 0.00) rc: 1.74
Ground state valence configuration:   2s02  2p02
Reading pseudopotential information in formatted form from C.psf

Valence configuration for pseudopotential generation:
2s( 2.00) rc: 1.54
2p( 2.00) rc: 1.54
3d( 0.00) rc: 1.54
4f( 0.00) rc: 1.54
For B, standard SIESTA heuristics set lmxkb to 3
 (one more than the basis l, including polarization orbitals).
Use PS.lmax or PS.KBprojectors blocks to override.
For C, standard SIESTA heuristics set lmxkb to 3
 (one more than the basis l, including polarization orbitals).
Use PS.lmax or PS.KBprojectors blocks to override.

<basis_specs>
===============================================================================
B                    Z=   5    Mass=  10.810        Charge= 0.17977+309
Lmxo=1 Lmxkb= 3    BasisType=split      Semic=F
L=0  Nsemic=0  Cnfigmx=2
          n=1  nzeta=2  polorb=0
            splnorm:   0.15000    
               vcte:    0.0000    
               rinn:    0.0000    
                rcs:    0.0000      0.0000    
            lambdas:    1.0000      1.0000    
L=1  Nsemic=0  Cnfigmx=2
          n=1  nzeta=2  polorb=1
            splnorm:   0.15000    
               vcte:    0.0000    
               rinn:    0.0000    
                rcs:    0.0000      0.0000    
            lambdas:    1.0000      1.0000    
-------------------------------------------------------------------------------
L=0  Nkbl=1  erefs: 0.17977+309
L=1  Nkbl=1  erefs: 0.17977+309
L=2  Nkbl=1  erefs: 0.17977+309
L=3  Nkbl=1  erefs: 0.17977+309
===============================================================================
</basis_specs>

atom: Called for B                     (Z =   5)

read_vps: Pseudopotential generation method:
read_vps: ATM3      Troullier-Martins                       
Total valence charge:    3.00000

read_vps: Pseudopotential includes a core correction:
read_vps: Pseudo-core for xc-correction

xc_check: Exchange-correlation functional:
xc_check: GGA Perdew, Burke & Ernzerhof 1996
V l=0 = -2*Zval/r beyond r=  1.7165
V l=1 = -2*Zval/r beyond r=  1.7165
V l=2 = -2*Zval/r beyond r=  1.7165
V l=3 = -2*Zval/r beyond r=  1.6951
All V_l potentials equal beyond r=  1.7165
This should be close to max(r_c) in ps generation
All pots = -2*Zval/r beyond r=  1.7165

VLOCAL1: 99.0% of the norm of Vloc inside     14.733 Ry
VLOCAL1: 99.9% of the norm of Vloc inside     33.577 Ry
atom: Maximum radius for 4*pi*r*r*local-pseudopot. charge    2.04484
atom: Maximum radius for r*vlocal+2*Zval:    1.75994
GHOST: No ghost state for L =  0
GHOST: No ghost state for L =  1
GHOST: No ghost state for L =  2
GHOST: No ghost state for L =  3

KBgen: Kleinman-Bylander projectors: 
   l= 0   rc=  1.897051   el= -0.693730   Ekb=  4.595746   kbcos=  0.286105
   l= 1   rc=  1.920920   el= -0.265236   Ekb= -2.350715   kbcos= -0.315747
   l= 2   rc=  2.044840   el=  0.002055   Ekb= -0.690767   kbcos= -0.013822
   l= 3   rc=  2.149707   el=  0.003188   Ekb= -0.315358   kbcos= -0.002055

KBgen: Total number of  Kleinman-Bylander projectors:   16
atom: -------------------------------------------------------------------------

atom: SANKEY-TYPE ORBITALS:
atom: Selected multiple-zeta basis: split     

SPLIT: Orbitals with angular momentum L= 0

SPLIT: Basis orbitals for state 2s

SPLIT: PAO cut-off radius determined from an
SPLIT: energy shift=  0.007350 Ry

   izeta = 1
                 lambda =    1.000000
                     rc =    5.422032
                 energy =   -0.686029
                kinetic =    0.576707
    potential(screened) =   -1.262736
       potential(ionic) =   -3.271094

   izeta = 2
                 rmatch =    4.222573
              splitnorm =    0.150000
                 energy =   -0.602132
                kinetic =    0.858975
    potential(screened) =   -1.461107
       potential(ionic) =   -3.582536

SPLIT: Orbitals with angular momentum L= 1

SPLIT: Basis orbitals for state 2p

SPLIT: PAO cut-off radius determined from an
SPLIT: energy shift=  0.007350 Ry

   izeta = 1
                 lambda =    1.000000
                     rc =    6.790259
                 energy =   -0.258578
                kinetic =    1.481412
    potential(screened) =   -1.739989
       potential(ionic) =   -3.657461

   izeta = 2
                 rmatch =    4.608740
              splitnorm =    0.150000
                 energy =   -0.173757
                kinetic =    2.186690
    potential(screened) =   -2.360447
       potential(ionic) =   -4.464260

POLgen: Perturbative polarization orbital with L=  2

POLgen: Polarization orbital for state 2p

   izeta = 1
                     rc =    6.790259
                 energy =    0.684082
                kinetic =    1.471481
    potential(screened) =   -0.787399
       potential(ionic) =   -2.406985
atom: Total number of Sankey-type orbitals: 13

atm_pop: Valence configuration (for local Pseudopot. screening):
 2s( 2.00)                                                            
 2p( 1.00)                                                            
Vna: chval, zval:    3.00000   3.00000

Vna:  Cut-off radius for the neutral-atom potential:   6.790259
comcore: Pseudo-core radius Rcore=  2.122997

atom: _________________________________________________________________________

<basis_specs>
===============================================================================
C                    Z=   6    Mass=  12.010        Charge= 0.17977+309
Lmxo=1 Lmxkb= 3    BasisType=split      Semic=F
L=0  Nsemic=0  Cnfigmx=2
          n=1  nzeta=2  polorb=0
            splnorm:   0.15000    
               vcte:    0.0000    
               rinn:    0.0000    
                rcs:    0.0000      0.0000    
            lambdas:    1.0000      1.0000    
L=1  Nsemic=0  Cnfigmx=2
          n=1  nzeta=2  polorb=1
            splnorm:   0.15000    
               vcte:    0.0000    
               rinn:    0.0000    
                rcs:    0.0000      0.0000    
            lambdas:    1.0000      1.0000    
-------------------------------------------------------------------------------
L=0  Nkbl=1  erefs: 0.17977+309
L=1  Nkbl=1  erefs: 0.17977+309
L=2  Nkbl=1  erefs: 0.17977+309
L=3  Nkbl=1  erefs: 0.17977+309
===============================================================================
</basis_specs>

atom: Called for C                     (Z =   6)

read_vps: Pseudopotential generation method:
read_vps: ATM3      Troullier-Martins                       
Total valence charge:    4.00000

read_vps: Pseudopotential includes a core correction:
read_vps: Pseudo-core for xc-correction

xc_check: Exchange-correlation functional:
xc_check: GGA Perdew, Burke & Ernzerhof 1996
V l=0 = -2*Zval/r beyond r=  1.5227
V l=1 = -2*Zval/r beyond r=  1.5227
V l=2 = -2*Zval/r beyond r=  1.5227
V l=3 = -2*Zval/r beyond r=  1.5038
All V_l potentials equal beyond r=  1.5227
This should be close to max(r_c) in ps generation
All pots = -2*Zval/r beyond r=  1.5227

VLOCAL1: 99.0% of the norm of Vloc inside     18.722 Ry
VLOCAL1: 99.9% of the norm of Vloc inside     42.668 Ry
atom: Maximum radius for 4*pi*r*r*local-pseudopot. charge    1.83678
atom: Maximum radius for r*vlocal+2*Zval:    1.58088
GHOST: No ghost state for L =  0
GHOST: No ghost state for L =  1
GHOST: No ghost state for L =  2
GHOST: No ghost state for L =  3

KBgen: Kleinman-Bylander projectors: 
   l= 0   rc=  1.704034   el= -1.009801   Ekb=  5.335044   kbcos=  0.316824
   l= 1   rc=  1.704034   el= -0.388707   Ekb= -3.785862   kbcos= -0.366464
   l= 2   rc=  1.791422   el=  0.001971   Ekb= -0.970471   kbcos= -0.009212
   l= 3   rc=  1.859892   el=  0.003065   Ekb= -0.399525   kbcos= -0.001223

KBgen: Total number of  Kleinman-Bylander projectors:   16
atom: -------------------------------------------------------------------------

atom: SANKEY-TYPE ORBITALS:
atom: Selected multiple-zeta basis: split     

SPLIT: Orbitals with angular momentum L= 0

SPLIT: Basis orbitals for state 2s

SPLIT: PAO cut-off radius determined from an
SPLIT: energy shift=  0.007350 Ry

   izeta = 1
                 lambda =    1.000000
                     rc =    4.632753
                 energy =   -1.002270
                kinetic =    0.855760
    potential(screened) =   -1.858031
       potential(ionic) =   -5.417575

   izeta = 2
                 rmatch =    3.431921
              splitnorm =    0.150000
                 energy =   -0.867111
                kinetic =    1.300804
    potential(screened) =   -2.167915
       potential(ionic) =   -5.962684

SPLIT: Orbitals with angular momentum L= 1

SPLIT: Basis orbitals for state 2p

SPLIT: PAO cut-off radius determined from an
SPLIT: energy shift=  0.007350 Ry

   izeta = 1
                 lambda =    1.000000
                     rc =    5.658549
                 energy =   -0.381140
                kinetic =    2.399701
    potential(screened) =   -2.780841
       potential(ionic) =   -6.206085

   izeta = 2
                 rmatch =    3.653288
              splitnorm =    0.150000
                 energy =   -0.249149
                kinetic =    3.542762
    potential(screened) =   -3.791911
       potential(ionic) =   -7.581078

POLgen: Perturbative polarization orbital with L=  2

POLgen: Polarization orbital for state 2p

   izeta = 1
                     rc =    5.658549
                 energy =    1.109913
                kinetic =    2.304789
    potential(screened) =   -1.194876
       potential(ionic) =   -4.013592
atom: Total number of Sankey-type orbitals: 13

atm_pop: Valence configuration (for local Pseudopot. screening):
 2s( 2.00)                                                            
 2p( 2.00)                                                            
Vna: chval, zval:    4.00000   4.00000

Vna:  Cut-off radius for the neutral-atom potential:   5.658549
comcore: Pseudo-core radius Rcore=  1.791422

atom: _________________________________________________________________________

prinput: Basis input ----------------------------------------------------------

PAO.BasisType split     

%block ChemicalSpeciesLabel
    1    5 B                       # Species index, atomic number, species label
    2    6 C                       # Species index, atomic number, species label
%endblock ChemicalSpeciesLabel

%block PAO.Basis                 # Define Basis set
B                     2                    # Species label, number of l-shells
 n=2   0   2                         # n, l, Nzeta 
   5.422      4.223   
   1.000      1.000   
 n=2   1   2 P   1                   # n, l, Nzeta, Polarization, NzetaPol
   6.790      4.609   
   1.000      1.000   
C                     2                    # Species label, number of l-shells
 n=2   0   2                         # n, l, Nzeta 
   4.633      3.432   
   1.000      1.000   
 n=2   1   2 P   1                   # n, l, Nzeta, Polarization, NzetaPol
   5.659      3.653   
   1.000      1.000   
%endblock PAO.Basis

prinput: ----------------------------------------------------------------------

coor:   Atomic-coordinates input format  =     Fractional

siesta: Atomic coordinates (Bohr) and species
siesta:      6.95932  30.82560   0.00000  1        1
siesta:      9.28770  29.48119   0.00000  1        2
siesta:      2.30256   9.31683   0.00000  1        3
siesta:     -0.02582  10.66124   0.00000  1        4
siesta:     -0.02582  13.34970   0.00000  1        5
siesta:     -2.35420  14.69411   0.00000  1        6
siesta:     -2.35420  17.38257   0.00000  1        7
siesta:     -4.68258  18.72698   0.00000  1        8
siesta:     -4.68258  21.41544   0.00000  1        9
siesta:     -7.01096  22.75985   0.00000  1       10
siesta:      4.63094  29.48119   0.00000  1       11
siesta:     -0.02582  29.48119   0.00000  1       12
siesta:     -4.68258  29.48119   0.00000  1       13
siesta:      2.30256  30.82560   0.00000  1       14
siesta:     -2.35420  30.82560   0.00000  1       15
siesta:     -7.01096  30.82560   0.00000  1       16
siesta:     -0.02582   2.59549   0.00000  2       17
siesta:     -0.02582   5.28395   0.00000  2       18
siesta:     -2.35420  38.89134   0.00000  2       19
siesta:     -2.35420  41.57980   0.00000  2       20
siesta:      2.30256  38.89134   0.00000  2       21
siesta:      2.30256  41.57980   0.00000  2       22
siesta:      4.63094  34.85847   0.00000  2       23
siesta:      4.63094  37.54693   0.00000  2       24
siesta:      6.95932  33.51406   0.00000  2       25
siesta:      9.28770  26.79272   0.00000  2       26
siesta:     -4.68258  34.85847   0.00000  2       27
siesta:     -4.68258  37.54693   0.00000  2       28
siesta:      2.30256   6.62836   0.00000  2       29
siesta:      4.63094  10.66124   0.00000  2       30
siesta:      4.63094  13.34970   0.00000  2       31
siesta:      6.95932  14.69411   0.00000  2       32
siesta:      6.95932  17.38257   0.00000  2       33
siesta:      9.28770  18.72698   0.00000  2       34
siesta:      9.28770  21.41544   0.00000  2       35
siesta:     11.61608  22.75985   0.00000  2       36
siesta:     11.61608  25.44831   0.00000  2       37
siesta:     -2.35420   6.62836   0.00000  2       38
siesta:     -2.35420   9.31683   0.00000  2       39
siesta:      2.30256  14.69411   0.00000  2       40
siesta:      2.30256  17.38257   0.00000  2       41
siesta:      4.63094  18.72698   0.00000  2       42
siesta:      4.63094  21.41544   0.00000  2       43
siesta:      6.95932  22.75985   0.00000  2       44
siesta:      6.95932  25.44831   0.00000  2       45
siesta:     -4.68258  10.66124   0.00000  2       46
siesta:     -4.68258  13.34970   0.00000  2       47
siesta:     -0.02582  18.72698   0.00000  2       48
siesta:     -0.02582  21.41544   0.00000  2       49
siesta:      2.30256  22.75985   0.00000  2       50
siesta:      2.30256  25.44831   0.00000  2       51
siesta:     -7.01096  14.69411   0.00000  2       52
siesta:     -7.01096  17.38257   0.00000  2       53
siesta:     -2.35420  22.75985   0.00000  2       54
siesta:     -2.35420  25.44831   0.00000  2       55
siesta:     -9.33934  18.72698   0.00000  2       56
siesta:     -9.33934  21.41544   0.00000  2       57
siesta:     -7.01096  25.44831   0.00000  2       58
siesta:    -11.66772  22.75985   0.00000  2       59
siesta:    -11.66772  25.44831   0.00000  2       60
siesta:     -9.33934  26.79272   0.00000  2       61
siesta:     -9.33934  29.48119   0.00000  2       62
siesta:      4.63094  26.79272   0.00000  2       63
siesta:     -0.02582  26.79272   0.00000  2       64
siesta:     -4.68258  26.79272   0.00000  2       65
siesta:      2.30256  33.51406   0.00000  2       66
siesta:     -2.35420  33.51406   0.00000  2       67
siesta:     -7.01096  33.51406   0.00000  2       68
siesta:     -0.02582  34.85847   0.00000  2       69
siesta:     -0.02582  37.54693   0.00000  2       70
siesta:     -0.02582  42.92421   0.00000  2       71
siesta:     -0.02582  45.61267   0.00000  2       72

siesta: System type = slab      

initatomlists: Number of atoms, orbitals, and projectors:     72   936  1152

siesta: ******************** Simulation parameters ****************************
siesta:
siesta: The following are some of the parameters of the simulation.
siesta: A complete list of the parameters used, including default values,
siesta: can be found in file out.fdf
siesta:
redata: Non-Collinear-spin run           =     F
redata: SpinPolarized (Up/Down) run      =     F
redata: Number of spin components        =     1
redata: Long output                      =     F
redata: Number of Atomic Species         =        2
redata: Charge density info will appear in .RHO file
redata: Write Mulliken Pop.              =     NO
redata: Mesh Cutoff                      =   200.0000  Ry
redata: Net charge of the system         =     0.0000 |e|
redata: Max. number of SCF Iter          =      500
redata: SCF convergence failure will abort job
redata: Performing Pulay mixing using    =    10 iterations
redata: Mix DM in first SCF step ?       =     F
redata: Write Pulay info on disk?        =     F
redata: Discard 1st Pulay DM after  kick =     F
redata: New DM Mixing Weight             =     0.0500
redata: New DM Occupancy tolerance       = 0.000000000001
redata: No kicks to SCF
redata: DM Mixing Weight for Kicks       =     0.5000
redata: DM Tolerance for SCF             =     0.000100
redata: Require Energy convergence for SCF =     F
redata: DM Energy tolerance for SCF      =     0.000100 eV
redata: Require Harris convergence for SCF =     F
redata: DM Harris energy tolerance for SCF =     0.000100 eV
redata: Using Saved Data (generic)   =     F
redata: Use continuation files for DM    =     T
redata: Neglect nonoverlap interactions  =     F
redata: Method of Calculation            =     Diagonalization
redata: Divide and Conquer               =     T
redata: Electronic Temperature           =     0.0019  Ry
redata: Fix the spin of the system       =     F
redata: Dynamics option                  =     Verlet MD run
redata: Initial MD time step             =        1
redata:   Final MD time step             =        1
redata: Length of MD time step           =     1.0000  fs
redata: Initial Temperature of MD run    =     0.0000  K
redata: Perform a MD quench              =     F
redata: ***********************************************************************
Total number of electrons:   272.000000
Total ionic charge:   272.000000

* ProcessorY, Blocksize:    3  24

k-point displ. along   1 input, could be:     0.50    0.00
k-point displ. along   2 input, could be:     0.50    0.00
 Kpoints in:          231 . Kpoints trimmed:          231

siesta: k-grid: Number of k-points =   231
siesta: k-grid: Cutoff (effective) =     5.000 Ang
siesta: k-grid: Supercell and displacements
siesta: k-grid:   21   0   0      0.500
siesta: k-grid:    0  21   0      0.500
siesta: k-grid:    0   0   1      0.000
Naive supercell factors:     2    2    2

superc: Internal auxiliary supercell:     2 x     2 x     2  =       8
superc: Number of atoms, orbitals, and projectors:    576   7488   9216

* Maximum dynamic memory allocated =     4 MB

siesta:                 ==============================
                            Begin MD step =      1
                        ==============================

superc: Internal auxiliary supercell:     2 x     2 x     2  =       8
superc: Number of atoms, orbitals, and projectors:    576   7488   9216

outcell: Unit cell vectors (Ang):
       12.804619    7.392750    0.000000
        0.000000   14.785500    0.000000
        0.000000    0.000000   10.000000

outcell: Cell vector modules (Ang)   :   14.785500   14.785500   10.000000
outcell: Cell angles (23,13,12) (deg):     90.0000     90.0000     60.0000
outcell: Cell volume (Ang**3)        :   1893.2269
New_DM. Step:     1
Initializing Density Matrix...

InitMesh: MESH =   120 x   120 x    90 =     1296000
InitMesh: Mesh cutoff (required, used) =   200.000   223.865 Ry

* Maximum dynamic memory allocated =   158 MB

stepf: Fermi-Dirac step function

siesta: Program's energy decomposition (eV):
siesta: Ebs     =     -5614.832125
siesta: Eions   =     16354.103692
siesta: Ena     =      4340.372243
siesta: Ekin    =      5534.369168
siesta: Enl     =       776.189002
siesta: DEna    =        -0.000010
siesta: DUscf   =         0.000000
siesta: DUext   =         0.000000
siesta: Exc     =     -4190.367443
siesta: eta*DQ  =         0.000000
siesta: Emadel  =         0.000000
siesta: Emeta   =         0.000000
siesta: Emolmec =         0.000000
siesta: Ekinion =         0.000000
siesta: Eharris =     -9661.388674
siesta: Etot    =     -9893.540732
siesta: FreeEng =     -9893.540732

siesta: iscf   Eharris(eV)      E_KS(eV)   FreeEng(eV)   dDmax  Ef(eV)
siesta:    1    -9661.3887    -9893.5407    -9893.5407  7.2970 -8.3511
timer: Routine,Calls,Time,% = IterSCF        1    3055.120  99.59
elaps: Routine,Calls,Wall,% = IterSCF        1     255.201  99.59
siesta:    2   -14605.6877    -8873.5990    -8873.6523 18.3495 -4.1020
siesta:    3    -9655.4468    -9723.0191    -9723.0372  2.6181 -5.9368
siesta:    4    -9598.5843    -9639.6122    -9639.6758  1.5051 -5.4485
siesta:    5    -9532.4882    -9541.7315    -9541.7729  1.1220 -5.1284
siesta:    6    -9520.0039    -9526.1022    -9526.1547  0.9181 -5.0942
siesta:    7    -9512.2556    -9514.4744    -9514.5114  0.8790 -5.1488
siesta:    8    -9511.5482    -9509.5003    -9509.5347  0.9451 -5.1349
siesta:    9    -9508.1145    -9504.2240    -9504.2901  0.8018 -5.1792
siesta:   10    -9512.4395    -9487.1593    -9487.2036  0.5523 -4.8510
siesta:   11    -9509.6096    -9484.5752    -9484.5885  0.3931 -4.8843
siesta:   12    -9506.5750    -9483.2403    -9483.2592  0.3602 -5.0059
siesta:   13    -9506.4798    -9482.7130    -9482.7680  0.3268 -5.0140
siesta:   14    -9505.8028    -9485.0847    -9485.1599  0.3090 -5.0554
siesta:   15    -9504.9917    -9488.6240    -9488.6966  0.2704 -5.0517
siesta:   16    -9504.5176    -9493.5049    -9493.5766  0.2172 -5.0676
siesta:   17    -9504.3769    -9496.0634    -9496.1301  0.1957 -5.0975
siesta:   18    -9504.2758    -9500.3308    -9500.3985  0.1505 -5.1303
siesta:   19    -9504.2489    -9505.7861    -9505.8565  0.1120 -5.1374
siesta:   20    -9504.1774    -9503.4499    -9503.5250  0.1040 -5.1425
siesta:   21    -9504.1737    -9504.2394    -9504.3140  0.0837 -5.1523
siesta:   22    -9504.1665    -9505.4797    -9505.5576  0.0362 -5.1445
siesta:   23    -9504.1512    -9505.8746    -9505.9575  0.0347 -5.1243
siesta:   24    -9504.1485    -9505.8934    -9505.9725  0.0195 -5.1233
siesta:   25    -9504.1435    -9505.7593    -9505.8383  0.0160 -5.1185
siesta:   26    -9504.1403    -9505.0742    -9505.1542  0.0192 -5.1180
siesta:   27    -9504.1384    -9504.7961    -9504.8764  0.0356 -5.1197
siesta:   28    -9504.1379    -9504.6670    -9504.7493  0.0044 -5.1222
siesta:   29    -9504.1376    -9504.5587    -9504.6393  0.0026 -5.1229
siesta:   30    -9504.1372    -9504.5234    -9504.6038  0.0057 -5.1224
siesta:   31    -9504.1373    -9504.4608    -9504.5414  0.0033 -5.1223
siesta:   32    -9504.1375    -9504.3190    -9504.3994  0.0014 -5.1220
siesta:   33    -9504.1376    -9504.2164    -9504.2966  0.0028 -5.1222
siesta:   34    -9504.1375    -9504.1859    -9504.2659  0.0012 -5.1222
siesta:   35    -9504.1374    -9504.1614    -9504.2416  0.0007 -5.1223
siesta:   36    -9504.1374    -9504.1464    -9504.2266  0.0005 -5.1224
siesta:   37    -9504.1374    -9504.1261    -9504.2063  0.0003 -5.1224
siesta:   38    -9504.1374    -9504.1281    -9504.2083  0.0002 -5.1225
siesta:   39    -9504.1374    -9504.1349    -9504.2151  0.0001 -5.1224
siesta:   40    -9504.1374    -9504.1332    -9504.2135  0.0001 -5.1224

siesta: E_KS(eV) =            -9504.1319

siesta: E_KS - E_eggbox =     -9504.1319

siesta: Atomic forces (eV/Ang):
----------------------------------------
   Tot   -0.048205   -0.140885    0.000000
----------------------------------------
   Max  564.143405
   Res  148.593138    sqrt( Sum f_i^2 / 3N )
----------------------------------------
   Max  564.143405    constrained

Stress-tensor-Voigt (kbar):     -757.55    -2671.94       -0.52       15.67        0.00        0.00
(Free)E + p*V (eV/cell)    -8153.1904
Target enthalpy (eV/cell)    -9504.2121

siesta: Stress tensor (static) (eV/Ang**3):
        -0.472823    0.009778    0.000000
         0.009778   -1.667677    0.000000
         0.000000    0.000000   -0.000323

siesta: Pressure (static):       1143.33830814  kBar

siesta: Stress tensor (total) (eV/Ang**3):
        -0.472823    0.009778    0.000000
         0.009778   -1.667677    0.000000
         0.000000    0.000000   -0.000323

siesta: Pressure (total):       1143.33830814  kBar

siesta: Temp_ion =       0.000 K

* Maximum dynamic memory allocated =   171 MB
Computing bands...

siesta: Program's energy decomposition (eV):
siesta: Ebs     =     -4219.820697
siesta: Eions   =     16354.103692
siesta: Ena     =      4340.372243
siesta: Ekin    =      8400.475092
siesta: Enl     =      -847.406102
siesta: DEna    =      -789.080965
siesta: DUscf   =       107.291848
siesta: DUext   =         0.000000
siesta: Exc     =     -4361.680340
siesta: eta*DQ  =         0.000000
siesta: Emadel  =         0.000000
siesta: Emeta   =         0.000000
siesta: Emolmec =         0.000000
siesta: Ekinion =         0.000000
siesta: Eharris =     -9504.137425
siesta: Etot    =     -9504.131916
siesta: FreeEng =     -9504.212129

siesta: Final energy (eV):
siesta:  Band Struct. =   -4219.820697
siesta:       Kinetic =    8400.475092
siesta:       Hartree =   27112.450970
siesta:    Ext. field =       0.000000
siesta:   Exch.-corr. =   -4361.680340
siesta:  Ion-electron =  -62304.659105
siesta:       Ion-ion =   21649.281467
siesta:       Ekinion =       0.000000
siesta:         Total =   -9504.131916

siesta: Atomic forces (eV/Ang):
siesta:      1    3.584255    7.536259    0.000000
siesta:      2    3.847299   -2.777821    0.000000
siesta:      3   -5.906651 -104.623505    0.000000
siesta:      4    3.592943  386.605213    0.000000
siesta:      5   -2.293655 -106.627366    0.000000
siesta:      6  -16.899818  396.878816    0.000000
siesta:      7  -15.502454   -2.161917    0.000000
siesta:      8   -0.914835   -3.145851    0.000000
siesta:      9    3.809016    1.911996    0.000000
siesta:     10   -2.976077    2.900313    0.000000
siesta:     11   -1.154852   -3.982250    0.000000
siesta:     12    0.222206 -415.407490    0.000000
siesta:     13    1.689958   -4.050370    0.000000
siesta:     14   17.139174    3.080445    0.000000
siesta:     15  -17.107356    3.166046    0.000000
siesta:     16   -8.117472    4.302653    0.000000
siesta:     17   -0.225267  407.425384    0.000000
siesta:     18    0.505316 -125.836428    0.000000
siesta:     19    2.155762  122.930239    0.000000
siesta:     20  -18.908673 -402.374559    0.000000
siesta:     21   -0.098318  132.181695    0.000000
siesta:     22   26.932483 -556.627409    0.000000
siesta:     23   22.615491    4.675160    0.000000
siesta:     24   37.756741 -548.410825    0.000000
siesta:     25   -3.790163    4.842243    0.000000
siesta:     26    3.310928   -0.922299    0.000000
siesta:     27  -26.154868    3.439803    0.000000
siesta:     28  -35.973175 -550.391582    0.000000
siesta:     29   14.889820  553.193541    0.000000
siesta:     30   25.526587  541.736700    0.000000
siesta:     31   25.957006   -4.606640    0.000000
siesta:     32   -2.547398   -2.221311    0.000000
siesta:     33    1.663275   -0.132115    0.000000
siesta:     34   -0.580346   -0.040375    0.000000
siesta:     35    2.014826   -2.364771    0.000000
siesta:     36   -0.027186    6.860889    0.000000
siesta:     37   -0.083280   -6.929244    0.000000
siesta:     38  -13.367114  552.758771    0.000000
siesta:     39    7.613971 -115.077376    0.000000
siesta:     40   16.925058  552.209205    0.000000
siesta:     41   22.215414   -8.242591    0.000000
siesta:     42   -0.757833    2.363678    0.000000
siesta:     43    0.665697   -0.457661    0.000000
siesta:     44   -0.344888    0.715897    0.000000
siesta:     45   -0.946929   -1.293483    0.000000
siesta:     46  -30.870616  549.345480    0.000000
siesta:     47  -24.398711   -0.440984    0.000000
siesta:     48   -6.451231  558.239617    0.000000
siesta:     49    0.748403    2.292933    0.000000
siesta:     50   -0.666830   -0.711067    0.000000
siesta:     51   -0.351152   -0.366116    0.000000
siesta:     52    2.469472   -1.665961    0.000000
siesta:     53   -7.293644   -3.089647    0.000000
siesta:     54    3.337669    0.457843    0.000000
siesta:     55    1.878279    0.165365    0.000000
siesta:     56    2.298854    0.509210    0.000000
siesta:     57   -6.096732   -4.529922    0.000000
siesta:     58    1.289792    1.917696    0.000000
siesta:     59    0.219491    7.280836    0.000000
siesta:     60   -0.139079   -6.684692    0.000000
siesta:     61   -3.589291    2.843991    0.000000
siesta:     62   -0.051357   -3.342438    0.000000
siesta:     63    0.072332   -3.287936    0.000000
siesta:     64   -0.536209   -3.192696    0.000000
siesta:     65   -1.039365   -2.833257    0.000000
siesta:     66   27.934652 -564.143405    0.000000
siesta:     67  -29.233413 -557.600958    0.000000
siesta:     68    4.070921    5.323285    0.000000
siesta:     69    3.051931  122.262232    0.000000
siesta:     70   -2.163434 -406.609455    0.000000
siesta:     71  -11.487254  133.046261    0.000000
siesta:     72    6.993698 -548.336804    0.000000
siesta: ----------------------------------------
siesta:    Tot   -0.048205   -0.140885    0.000000

siesta: Stress tensor (static) (eV/Ang**3):
siesta:    -0.472823    0.009778    0.000000
siesta:     0.009778   -1.667677    0.000000
siesta:     0.000000    0.000000   -0.000323

siesta: Cell volume =       1893.226884 Ang**3

siesta: Pressure (static):
siesta:                Solid            Molecule  Units
siesta:           0.00777210          0.11432168  Ry/Bohr**3
siesta:           0.71360793         10.49662749  eV/Ang**3
siesta:        1143.33830814      16817.63307551  kBar
(Free)E+ p_basis*V_orbitals  =       -9468.419257
(Free)Eharris+ p_basis*V_orbitals  =       -9468.423434

siesta: Electric dipole (a.u.)  =    0.000000    0.000000    0.000000
siesta: Electric dipole (Debye) =    0.000000    0.000000    0.000000

* Maximum dynamic memory allocated : Node    0 =   171 MB
* Maximum dynamic memory allocated : Node    1 =    67 MB
* Maximum dynamic memory allocated : Node    2 =    70 MB
* Maximum dynamic memory allocated : Node    3 =   158 MB
* Maximum dynamic memory allocated : Node    4 =   164 MB
* Maximum dynamic memory allocated : Node    5 =    61 MB
* Maximum dynamic memory allocated : Node    6 =    61 MB
* Maximum dynamic memory allocated : Node    7 =   154 MB
* Maximum dynamic memory allocated : Node    8 =   152 MB
* Maximum dynamic memory allocated : Node    9 =    61 MB
* Maximum dynamic memory allocated : Node   10 =    63 MB
* Maximum dynamic memory allocated : Node   11 =   144 MB

* Maximum memory occured during matrixMtoO                    

timer: CPU execution times:
timer:  Routine       Calls   Time/call    Tot.time        %
timer:  siesta            1  119095.276  119095.276   100.00
timer:  Setup             1       3.333       3.333     0.00
timer:  bands             3     226.434     679.303     0.57
timer:  writewave         1       0.023       0.023     0.00
timer:  KSV_init          1       0.004       0.004     0.00
timer:  IterMD            1  118405.688  118405.688    99.42
timer:  hsparse           1       0.283       0.283     0.00
timer:  overlap           1       7.417       7.417     0.01
timer:  IterSCF          40    2956.297  118251.897    99.29
timer:  kinefsm           2       3.779       7.557     0.01
timer:  nlefsm            2      20.062      40.124     0.03
timer:  DHSCF            41      79.196    3247.049     2.73
timer:  DHSCF1            1       1.190       1.190     0.00
timer:  DHSCF2            1      32.800      32.800     0.03
timer:  REORD           330       0.002       0.769     0.00
timer:  POISON           42       0.448      18.818     0.02
timer:  DHSCF3           41      77.678    3184.817     2.67
timer:  rhoofd           41      17.260     707.676     0.59
timer:  cellXC           41       2.454     100.632     0.08
timer:  vmat             41      36.581    1499.825     1.26
timer:  MolMec            2       0.000       0.000     0.00
timer:  diagon           40    2875.943  115037.738    96.59
timer:  c-eigval       9361       5.598   52398.505    44.00
timer:  c-buildHS      9361       0.036     336.659     0.28
timer:  cdiag         18601       5.699  106009.279    89.01
timer:  cdiag1        18601       0.259    4822.263     4.05
timer:  cdiag2        18601       1.840   34217.097    28.73
timer:  cdiag3        18601       3.388   63021.767    52.92
timer:  cdiag4        18601       0.086    1603.145     1.35
timer:  c-eigvec       9240       5.869   54230.916    45.54
timer:  c-buildD       9240       0.978    9036.815     7.59
timer:  DHSCF4            1      27.992      27.992     0.02
timer:  dfscf             1      25.888      25.888     0.02
timer:  overfsm           1       0.330       0.330     0.00
timer:  optical           1       6.352       6.352     0.01
  

elaps: ELAPSED times:
elaps:  Routine       Calls   Time/call    Tot.time        %
elaps:  siesta            1    9947.939    9947.939   100.00
elaps:  Setup             1       0.283       0.283     0.00
elaps:  bands             3      18.929      56.788     0.57
elaps:  writewave         1       0.002       0.002     0.00
elaps:  KSV_init          1       0.000       0.000     0.00
elaps:  IterMD            1    9890.334    9890.334    99.42
elaps:  hsparse           1       0.028       0.028     0.00
elaps:  overlap           1       0.715       0.715     0.01
elaps:  IterSCF          40     246.937    9877.489    99.29
elaps:  kinefsm           2       0.367       0.734     0.01
elaps:  nlefsm            2       1.792       3.584     0.04
elaps:  DHSCF            41       6.670     273.488     2.75
elaps:  DHSCF1            1       0.102       0.102     0.00
elaps:  DHSCF2            1       2.738       2.738     0.03
elaps:  REORD           330       0.000       0.098     0.00
elaps:  POISON           42       0.038       1.589     0.02
elaps:  DHSCF3           41       6.489     266.052     2.67
elaps:  rhoofd           41       3.068     125.785     1.26
elaps:  cellXC           41       0.205       8.388     0.08
elaps:  vmat             41       3.056     125.301     1.26
elaps:  MolMec            2       0.000       0.000     0.00
elaps:  diagon           40     240.232    9609.278    96.60
elaps:  c-eigval       9361       0.468    4376.762    44.00
elaps:  c-buildHS      9361       0.004      35.315     0.35
elaps:  cdiag         18601       0.471    8766.842    88.13
elaps:  cdiag1        18601       0.021     393.435     3.95
elaps:  cdiag2        18601       0.154    2860.740    28.76
elaps:  cdiag3        18601       0.283    5272.265    53.00
elaps:  cdiag4        18601       0.007     128.743     1.29
elaps:  c-eigvec       9240       0.482    4455.212    44.79
elaps:  c-buildD       9240       0.090     829.343     8.34
elaps:  DHSCF4            1       4.554       4.554     0.05
elaps:  dfscf             1       4.292       4.292     0.04
elaps:  overfsm           1       0.034       0.034     0.00
elaps:  optical           1       0.000       0.000     0.00
  
>> End of run:   2-MAY-2016  21:16:23
