Siesta Version:                                        siesta-3.2-pl-3
Architecture  : x86_64-unknown-linux-gnu--unknown
Compiler flags: mpiifort -g -O2 -fPIC -xSSE4.1 -fp-model source -shared-intel 
PARALLEL version

* Running on    8 nodes in parallel
>> Start of run:  28-APR-2016  23:31:05

                           ***********************       
                           *  WELCOME TO SIESTA  *       
                           ***********************       

reinit: Reading from standard input
************************** Dump of input data file ****************************
#(1) General system descriptors
SystemName            GRP_doping    # Descriptive name of the system
SystemLabel           GRP_doping    # Short name for naming files
%include STRUCT.fdf
%include KPT.fdf
%include BASIS.fdf
#%include TS.fdf # for transiesta calculation
#(4) DFT, Grid, SCF
XC.functional         GGA           # LDA or GGA (default = LDA)
XC.authors            PBE           # CA (Ceperley-Aldr) = PZ
                                    #    (Perdew-Zunger) - LDA - Default
                                    # PW92 (Perdew-Wang-92) - LDA
                                    # PBE (Perdew-Burke-Ernzerhof) - GGA
MeshCutoff            200.000000    Ry      # Default: 50.0 Ry ~ 0.444 Bohr
                                    #         100.0 Ry ~ 0.314 Bohr
MaxSCFIterations      500           # Default: 50
DM.MixingWeight       0.05          # Default: 0.25
DM.NumberPulay        10            # Default: 0
DM.PulayOnFile        F             # SystemLabel.P1, SystemLabel.P2
DM.Tolerance          1.d-4         # Default: 1.d-4
DM.UseSaveDM          .true.        # because of the bug
SCFMustConverge       .true.
NeglNonOverlapInt     F             # Default: F
#(5) Eigenvalue problem: order-N or diagonalization
SolutionMethod        Diagon        # or Transiesta
ElectronicTemperature 300.0 K       # Default: 300.0 K
#(6) Molecular dynamics and relaxations
#MD.TypeOfRun          CG            # Type of dynamics:
#MD.VariableCell       F
#MD.NumCGsteps         0           # 0 for single-point / 100 for gopt
#MD.MaxCGDispl         0.2 Bohr      # Default: 0.2 Bohr
#MD.MaxForceTol        0.02 eV/Ang   # Default: 0.04 eV/Ang
#MD.MaxStressTol       1.0 GPa       # Default: 1.0 GPa
# Geometry Constraints
#%block GeometryConstraints
#	position from 1 to 44
#%endblock GeometryConstraints
BandLinesScale   pi/a
%block BandLines
 1   0.00000000  0.00000000  0.00000000
50   0.00000000  0.07809418  0.00000000
50   0.04509075  0.07809242  0.00000000
20   0.00000000  0.00000000  0.00000000
%endblock BandLines
************************** End of input data file *****************************

reinit: -----------------------------------------------------------------------
reinit: System Name: GRP_doping
reinit: -----------------------------------------------------------------------
reinit: System Label: GRP_doping                                                  
reinit: -----------------------------------------------------------------------

initatom: Reading input for the pseudopotentials and atomic orbitals ----------
 Species number:            1  Label: N Atomic number:           7
 Species number:            2  Label: C Atomic number:           6
Ground state valence configuration:   2s02  2p03
Reading pseudopotential information in formatted form from N.psf

Valence configuration for pseudopotential generation:
2s( 2.00) rc: 1.48
2p( 3.00) rc: 1.48
3d( 0.00) rc: 1.48
4f( 0.00) rc: 1.48
Ground state valence configuration:   2s02  2p02
Reading pseudopotential information in formatted form from C.psf

Valence configuration for pseudopotential generation:
2s( 2.00) rc: 1.54
2p( 2.00) rc: 1.54
3d( 0.00) rc: 1.54
4f( 0.00) rc: 1.54
For N, standard SIESTA heuristics set lmxkb to 3
 (one more than the basis l, including polarization orbitals).
Use PS.lmax or PS.KBprojectors blocks to override.
For C, standard SIESTA heuristics set lmxkb to 3
 (one more than the basis l, including polarization orbitals).
Use PS.lmax or PS.KBprojectors blocks to override.

<basis_specs>
===============================================================================
N                    Z=   7    Mass=  14.010        Charge= 0.17977+309
Lmxo=1 Lmxkb= 3    BasisType=split      Semic=F
L=0  Nsemic=0  Cnfigmx=2
          n=1  nzeta=2  polorb=0
            splnorm:   0.15000    
               vcte:    0.0000    
               rinn:    0.0000    
                rcs:    0.0000      0.0000    
            lambdas:    1.0000      1.0000    
L=1  Nsemic=0  Cnfigmx=2
          n=1  nzeta=2  polorb=1
            splnorm:   0.15000    
               vcte:    0.0000    
               rinn:    0.0000    
                rcs:    0.0000      0.0000    
            lambdas:    1.0000      1.0000    
-------------------------------------------------------------------------------
L=0  Nkbl=1  erefs: 0.17977+309
L=1  Nkbl=1  erefs: 0.17977+309
L=2  Nkbl=1  erefs: 0.17977+309
L=3  Nkbl=1  erefs: 0.17977+309
===============================================================================
</basis_specs>

atom: Called for N                     (Z =   7)

read_vps: Pseudopotential generation method:
read_vps: ATM3      Troullier-Martins                       
Total valence charge:    5.00000

read_vps: Pseudopotential includes a core correction:
read_vps: Pseudo-core for xc-correction

xc_check: Exchange-correlation functional:
xc_check: GGA Perdew, Burke & Ernzerhof 1996
V l=0 = -2*Zval/r beyond r=  1.4606
V l=1 = -2*Zval/r beyond r=  1.4606
V l=2 = -2*Zval/r beyond r=  1.4606
V l=3 = -2*Zval/r beyond r=  1.4606
All V_l potentials equal beyond r=  1.4606
This should be close to max(r_c) in ps generation
All pots = -2*Zval/r beyond r=  1.4606

VLOCAL1: 99.0% of the norm of Vloc inside     20.347 Ry
VLOCAL1: 99.9% of the norm of Vloc inside     46.372 Ry
atom: Maximum radius for 4*pi*r*r*local-pseudopot. charge    1.76189
atom: Maximum radius for r*vlocal+2*Zval:    1.53550
GHOST: No ghost state for L =  0
GHOST: No ghost state for L =  1
GHOST: No ghost state for L =  2
GHOST: No ghost state for L =  3

KBgen: Kleinman-Bylander projectors: 
   l= 0   rc=  1.634559   el= -1.363963   Ekb=  5.296955   kbcos=  0.335621
   l= 1   rc=  1.614250   el= -0.521451   Ekb= -5.259161   kbcos= -0.433408
   l= 2   rc=  1.718383   el=  0.001991   Ekb= -1.271464   kbcos= -0.007566
   l= 3   rc=  1.761893   el=  0.003093   Ekb= -0.494769   kbcos= -0.001015

KBgen: Total number of  Kleinman-Bylander projectors:   16
atom: -------------------------------------------------------------------------

atom: SANKEY-TYPE ORBITALS:
atom: Selected multiple-zeta basis: split     

SPLIT: Orbitals with angular momentum L= 0

SPLIT: Basis orbitals for state 2s

SPLIT: PAO cut-off radius determined from an
SPLIT: energy shift=  0.007350 Ry

   izeta = 1
                 lambda =    1.000000
                     rc =    4.071465
                 energy =   -1.356470
                kinetic =    1.176977
    potential(screened) =   -2.533447
       potential(ionic) =   -8.057990

   izeta = 2
                 rmatch =    2.905100
              splitnorm =    0.150000
                 energy =   -1.158343
                kinetic =    1.813009
    potential(screened) =   -2.971352
       potential(ionic) =   -8.901931

SPLIT: Orbitals with angular momentum L= 1

SPLIT: Basis orbitals for state 2p

SPLIT: PAO cut-off radius determined from an
SPLIT: energy shift=  0.007350 Ry

   izeta = 1
                 lambda =    1.000000
                     rc =    4.972977
                 energy =   -0.513884
                kinetic =    3.441732
    potential(screened) =   -3.955616
       potential(ionic) =   -9.287901

   izeta = 2
                 rmatch =    3.054066
              splitnorm =    0.150000
                 energy =   -0.318226
                kinetic =    5.125348
    potential(screened) =   -5.443573
       potential(ionic) =  -11.380999

POLgen: Perturbative polarization orbital with L=  2

POLgen: Polarization orbital for state 2p

   izeta = 1
                     rc =    4.972977
                 energy =    1.607437
                kinetic =    3.268125
    potential(screened) =   -1.660688
       potential(ionic) =   -5.973652
atom: Total number of Sankey-type orbitals: 13

atm_pop: Valence configuration (for local Pseudopot. screening):
 2s( 2.00)                                                            
 2p( 3.00)                                                            
Vna: chval, zval:    5.00000   5.00000

Vna:  Cut-off radius for the neutral-atom potential:   4.972977
comcore: Pseudo-core radius Rcore=  1.554824

atom: _________________________________________________________________________

<basis_specs>
===============================================================================
C                    Z=   6    Mass=  12.010        Charge= 0.17977+309
Lmxo=1 Lmxkb= 3    BasisType=split      Semic=F
L=0  Nsemic=0  Cnfigmx=2
          n=1  nzeta=2  polorb=0
            splnorm:   0.15000    
               vcte:    0.0000    
               rinn:    0.0000    
                rcs:    0.0000      0.0000    
            lambdas:    1.0000      1.0000    
L=1  Nsemic=0  Cnfigmx=2
          n=1  nzeta=2  polorb=1
            splnorm:   0.15000    
               vcte:    0.0000    
               rinn:    0.0000    
                rcs:    0.0000      0.0000    
            lambdas:    1.0000      1.0000    
-------------------------------------------------------------------------------
L=0  Nkbl=1  erefs: 0.17977+309
L=1  Nkbl=1  erefs: 0.17977+309
L=2  Nkbl=1  erefs: 0.17977+309
L=3  Nkbl=1  erefs: 0.17977+309
===============================================================================
</basis_specs>

atom: Called for C                     (Z =   6)

read_vps: Pseudopotential generation method:
read_vps: ATM3      Troullier-Martins                       
Total valence charge:    4.00000

read_vps: Pseudopotential includes a core correction:
read_vps: Pseudo-core for xc-correction

xc_check: Exchange-correlation functional:
xc_check: GGA Perdew, Burke & Ernzerhof 1996
V l=0 = -2*Zval/r beyond r=  1.5227
V l=1 = -2*Zval/r beyond r=  1.5227
V l=2 = -2*Zval/r beyond r=  1.5227
V l=3 = -2*Zval/r beyond r=  1.5038
All V_l potentials equal beyond r=  1.5227
This should be close to max(r_c) in ps generation
All pots = -2*Zval/r beyond r=  1.5227

VLOCAL1: 99.0% of the norm of Vloc inside     18.722 Ry
VLOCAL1: 99.9% of the norm of Vloc inside     42.668 Ry
atom: Maximum radius for 4*pi*r*r*local-pseudopot. charge    1.83678
atom: Maximum radius for r*vlocal+2*Zval:    1.58088
GHOST: No ghost state for L =  0
GHOST: No ghost state for L =  1
GHOST: No ghost state for L =  2
GHOST: No ghost state for L =  3

KBgen: Kleinman-Bylander projectors: 
   l= 0   rc=  1.704034   el= -1.009801   Ekb=  5.335044   kbcos=  0.316824
   l= 1   rc=  1.704034   el= -0.388707   Ekb= -3.785862   kbcos= -0.366464
   l= 2   rc=  1.791422   el=  0.001971   Ekb= -0.970471   kbcos= -0.009212
   l= 3   rc=  1.859892   el=  0.003065   Ekb= -0.399525   kbcos= -0.001223

KBgen: Total number of  Kleinman-Bylander projectors:   16
atom: -------------------------------------------------------------------------

atom: SANKEY-TYPE ORBITALS:
atom: Selected multiple-zeta basis: split     

SPLIT: Orbitals with angular momentum L= 0

SPLIT: Basis orbitals for state 2s

SPLIT: PAO cut-off radius determined from an
SPLIT: energy shift=  0.007350 Ry

   izeta = 1
                 lambda =    1.000000
                     rc =    4.632753
                 energy =   -1.002270
                kinetic =    0.855760
    potential(screened) =   -1.858031
       potential(ionic) =   -5.417575

   izeta = 2
                 rmatch =    3.431921
              splitnorm =    0.150000
                 energy =   -0.867111
                kinetic =    1.300804
    potential(screened) =   -2.167915
       potential(ionic) =   -5.962684

SPLIT: Orbitals with angular momentum L= 1

SPLIT: Basis orbitals for state 2p

SPLIT: PAO cut-off radius determined from an
SPLIT: energy shift=  0.007350 Ry

   izeta = 1
                 lambda =    1.000000
                     rc =    5.658549
                 energy =   -0.381140
                kinetic =    2.399701
    potential(screened) =   -2.780841
       potential(ionic) =   -6.206085

   izeta = 2
                 rmatch =    3.653288
              splitnorm =    0.150000
                 energy =   -0.249149
                kinetic =    3.542762
    potential(screened) =   -3.791911
       potential(ionic) =   -7.581078

POLgen: Perturbative polarization orbital with L=  2

POLgen: Polarization orbital for state 2p

   izeta = 1
                     rc =    5.658549
                 energy =    1.109913
                kinetic =    2.304789
    potential(screened) =   -1.194876
       potential(ionic) =   -4.013592
atom: Total number of Sankey-type orbitals: 13

atm_pop: Valence configuration (for local Pseudopot. screening):
 2s( 2.00)                                                            
 2p( 2.00)                                                            
Vna: chval, zval:    4.00000   4.00000

Vna:  Cut-off radius for the neutral-atom potential:   5.658549
comcore: Pseudo-core radius Rcore=  1.791422

atom: _________________________________________________________________________

prinput: Basis input ----------------------------------------------------------

PAO.BasisType split     

%block ChemicalSpeciesLabel
    1    7 N                       # Species index, atomic number, species label
    2    6 C                       # Species index, atomic number, species label
%endblock ChemicalSpeciesLabel

%block PAO.Basis                 # Define Basis set
N                     2                    # Species label, number of l-shells
 n=2   0   2                         # n, l, Nzeta 
   4.071      2.905   
   1.000      1.000   
 n=2   1   2 P   1                   # n, l, Nzeta, Polarization, NzetaPol
   4.973      3.054   
   1.000      1.000   
C                     2                    # Species label, number of l-shells
 n=2   0   2                         # n, l, Nzeta 
   4.633      3.432   
   1.000      1.000   
 n=2   1   2 P   1                   # n, l, Nzeta, Polarization, NzetaPol
   5.659      3.653   
   1.000      1.000   
%endblock PAO.Basis

prinput: ----------------------------------------------------------------------

coor:   Atomic-coordinates input format  =     Fractional

siesta: Atomic coordinates (Bohr) and species
siesta:     -0.02582   5.28395   0.00000  1        1
siesta:      4.63094  21.41544   0.00000  1        2
siesta:      6.95932  22.75985   0.00000  1        3
siesta:      6.95932  25.44831   0.00000  1        4
siesta:     -0.02582  21.41544   0.00000  1        5
siesta:      2.30256  22.75985   0.00000  1        6
siesta:      2.30256  25.44831   0.00000  1        7
siesta:     -4.68258  21.41544   0.00000  1        8
siesta:     -2.35420  22.75985   0.00000  1        9
siesta:     -2.35420  25.44831   0.00000  1       10
siesta:     -9.33934  21.41544   0.00000  1       11
siesta:     -7.01096  22.75985   0.00000  1       12
siesta:     -7.01096  25.44831   0.00000  1       13
siesta:    -11.66772  22.75985   0.00000  1       14
siesta:    -11.66772  25.44831   0.00000  1       15
siesta:     -9.33934  26.79272   0.00000  1       16
siesta:      4.63094  26.79272   0.00000  1       17
siesta:     -0.02582  26.79272   0.00000  1       18
siesta:     -4.68258  26.79272   0.00000  1       19
siesta:     -0.02582  45.61267   0.00000  1       20
siesta:     -0.02582   2.59549   0.00000  2       21
siesta:     -2.35420  38.89134   0.00000  2       22
siesta:     -2.35420  41.57980   0.00000  2       23
siesta:      2.30256  38.89134   0.00000  2       24
siesta:      2.30256  41.57980   0.00000  2       25
siesta:      4.63094  34.85847   0.00000  2       26
siesta:      4.63094  37.54693   0.00000  2       27
siesta:      6.95932  30.82560   0.00000  2       28
siesta:      6.95932  33.51406   0.00000  2       29
siesta:      9.28770  26.79272   0.00000  2       30
siesta:      9.28770  29.48119   0.00000  2       31
siesta:     -4.68258  34.85847   0.00000  2       32
siesta:     -4.68258  37.54693   0.00000  2       33
siesta:      2.30256   6.62836   0.00000  2       34
siesta:      2.30256   9.31683   0.00000  2       35
siesta:      4.63094  10.66124   0.00000  2       36
siesta:      4.63094  13.34970   0.00000  2       37
siesta:      6.95932  14.69411   0.00000  2       38
siesta:      6.95932  17.38257   0.00000  2       39
siesta:      9.28770  18.72698   0.00000  2       40
siesta:      9.28770  21.41544   0.00000  2       41
siesta:     11.61608  22.75985   0.00000  2       42
siesta:     11.61608  25.44831   0.00000  2       43
siesta:     -2.35420   6.62836   0.00000  2       44
siesta:     -2.35420   9.31683   0.00000  2       45
siesta:     -0.02582  10.66124   0.00000  2       46
siesta:     -0.02582  13.34970   0.00000  2       47
siesta:      2.30256  14.69411   0.00000  2       48
siesta:      2.30256  17.38257   0.00000  2       49
siesta:      4.63094  18.72698   0.00000  2       50
siesta:     -4.68258  10.66124   0.00000  2       51
siesta:     -4.68258  13.34970   0.00000  2       52
siesta:     -2.35420  14.69411   0.00000  2       53
siesta:     -2.35420  17.38257   0.00000  2       54
siesta:     -0.02582  18.72698   0.00000  2       55
siesta:     -7.01096  14.69411   0.00000  2       56
siesta:     -7.01096  17.38257   0.00000  2       57
siesta:     -4.68258  18.72698   0.00000  2       58
siesta:     -9.33934  18.72698   0.00000  2       59
siesta:     -9.33934  29.48119   0.00000  2       60
siesta:      4.63094  29.48119   0.00000  2       61
siesta:     -0.02582  29.48119   0.00000  2       62
siesta:     -4.68258  29.48119   0.00000  2       63
siesta:      2.30256  30.82560   0.00000  2       64
siesta:      2.30256  33.51406   0.00000  2       65
siesta:     -2.35420  30.82560   0.00000  2       66
siesta:     -2.35420  33.51406   0.00000  2       67
siesta:     -7.01096  30.82560   0.00000  2       68
siesta:     -7.01096  33.51406   0.00000  2       69
siesta:     -0.02582  34.85847   0.00000  2       70
siesta:     -0.02582  37.54693   0.00000  2       71
siesta:     -0.02582  42.92421   0.00000  2       72

siesta: System type = slab      

initatomlists: Number of atoms, orbitals, and projectors:     72   936  1152

siesta: ******************** Simulation parameters ****************************
siesta:
siesta: The following are some of the parameters of the simulation.
siesta: A complete list of the parameters used, including default values,
siesta: can be found in file out.fdf
siesta:
redata: Non-Collinear-spin run           =     F
redata: SpinPolarized (Up/Down) run      =     F
redata: Number of spin components        =     1
redata: Long output                      =     F
redata: Number of Atomic Species         =        2
redata: Charge density info will appear in .RHO file
redata: Write Mulliken Pop.              =     NO
redata: Mesh Cutoff                      =   200.0000  Ry
redata: Net charge of the system         =     0.0000 |e|
redata: Max. number of SCF Iter          =      500
redata: SCF convergence failure will abort job
redata: Performing Pulay mixing using    =    10 iterations
redata: Mix DM in first SCF step ?       =     F
redata: Write Pulay info on disk?        =     F
redata: Discard 1st Pulay DM after  kick =     F
redata: New DM Mixing Weight             =     0.0500
redata: New DM Occupancy tolerance       = 0.000000000001
redata: No kicks to SCF
redata: DM Mixing Weight for Kicks       =     0.5000
redata: DM Tolerance for SCF             =     0.000100
redata: Require Energy convergence for SCF =     F
redata: DM Energy tolerance for SCF      =     0.000100 eV
redata: Require Harris convergence for SCF =     F
redata: DM Harris energy tolerance for SCF =     0.000100 eV
redata: Using Saved Data (generic)   =     F
redata: Use continuation files for DM    =     T
redata: Neglect nonoverlap interactions  =     F
redata: Method of Calculation            =     Diagonalization
redata: Divide and Conquer               =     T
redata: Electronic Temperature           =     0.0019  Ry
redata: Fix the spin of the system       =     F
redata: Dynamics option                  =     Verlet MD run
redata: Initial MD time step             =        1
redata:   Final MD time step             =        1
redata: Length of MD time step           =     1.0000  fs
redata: Initial Temperature of MD run    =     0.0000  K
redata: Perform a MD quench              =     F
redata: ***********************************************************************
Total number of electrons:   308.000000
Total ionic charge:   308.000000

* ProcessorY, Blocksize:    2  24

k-point displ. along   1 input, could be:     0.50    0.00
k-point displ. along   2 input, could be:     0.50    0.00
 Kpoints in:          231 . Kpoints trimmed:          231

siesta: k-grid: Number of k-points =   231
siesta: k-grid: Cutoff (effective) =     5.000 Ang
siesta: k-grid: Supercell and displacements
siesta: k-grid:   21   0   0      0.500
siesta: k-grid:    0  21   0      0.500
siesta: k-grid:    0   0   1      0.000
Naive supercell factors:     2    2    2

superc: Internal auxiliary supercell:     2 x     2 x     2  =       8
superc: Number of atoms, orbitals, and projectors:    576   7488   9216

* Maximum dynamic memory allocated =     4 MB

siesta:                 ==============================
                            Begin MD step =      1
                        ==============================

superc: Internal auxiliary supercell:     2 x     2 x     2  =       8
superc: Number of atoms, orbitals, and projectors:    576   7488   9216

outcell: Unit cell vectors (Ang):
       12.804619    7.392750    0.000000
        0.000000   14.785500    0.000000
        0.000000    0.000000   10.000000

outcell: Cell vector modules (Ang)   :   14.785500   14.785500   10.000000
outcell: Cell angles (23,13,12) (deg):     90.0000     90.0000     60.0000
outcell: Cell volume (Ang**3)        :   1893.2269
New_DM. Step:     1
Initializing Density Matrix...

InitMesh: MESH =   120 x   120 x    90 =     1296000
InitMesh: Mesh cutoff (required, used) =   200.000   223.865 Ry

* Maximum dynamic memory allocated =   185 MB

stepf: Fermi-Dirac step function

siesta: Program's energy decomposition (eV):
siesta: Ebs     =     -6191.460354
siesta: Eions   =     21617.947954
siesta: Ena     =      4913.619879
siesta: Ekin    =      8056.630787
siesta: Enl     =        67.321096
siesta: DEna    =        -0.000015
siesta: DUscf   =         0.000000
siesta: DUext   =         0.000000
siesta: Exc     =     -4662.512588
siesta: eta*DQ  =         0.000000
siesta: Emadel  =         0.000000
siesta: Emeta   =         0.000000
siesta: Emolmec =         0.000000
siesta: Ekinion =         0.000000
siesta: Eharris =    -12893.835960
siesta: Etot    =    -13242.888795
siesta: FreeEng =    -13242.888795

siesta: iscf   Eharris(eV)      E_KS(eV)   FreeEng(eV)   dDmax  Ef(eV)
siesta:    1   -12893.8360   -13242.8888   -13242.8888  6.7433 -6.7930
timer: Routine,Calls,Time,% = IterSCF        1    4252.166  99.73
elaps: Routine,Calls,Wall,% = IterSCF        1     532.136  99.73
siesta:    2   -21132.0034   -11860.1350   -11860.1898 17.6662 -9.5463
siesta:    3   -12835.1977   -13076.2661   -13076.3627  3.6201 -5.3837
siesta:    4   -12803.8750   -12912.0051   -12912.0727  1.7853 -4.4579
siesta:    5   -12729.2436   -12850.6794   -12850.7484  1.2863 -4.0204
siesta:    6   -12720.6652   -12764.4356   -12764.4927  0.9865 -3.6169
siesta:    7   -12717.7525   -12749.5327   -12749.6162  0.8538 -3.6138
siesta:    8   -12713.1914   -12727.5708   -12727.6381  0.7237 -3.7837
siesta:    9   -12713.3468   -12713.4222   -12713.4850  0.4873 -3.8422
siesta:   10   -12712.6558   -12705.4150   -12705.4894  0.5695 -3.8199
siesta:   11   -12712.1606   -12689.5423   -12689.5957  0.3607 -3.8004
siesta:   12   -12712.4389   -12679.7009   -12679.7500  0.1600 -3.8129
siesta:   13   -12712.0417   -12677.1109   -12677.1876  0.1864 -3.7633
siesta:   14   -12711.1622   -12680.8550   -12680.9122  0.1825 -3.7030
siesta:   15   -12710.9243   -12682.5397   -12682.6095  0.1290 -3.7160
siesta:   16   -12710.7316   -12687.6011   -12687.6487  0.1045 -3.7101
siesta:   17   -12710.5716   -12693.7718   -12693.8236  0.0588 -3.7548
siesta:   18   -12710.5491   -12697.7458   -12697.8131  0.0429 -3.7709
siesta:   19   -12710.5478   -12703.4838   -12703.5520  0.0420 -3.7727
siesta:   20   -12710.5369   -12706.9629   -12707.0282  0.0349 -3.7733
siesta:   21   -12710.5289   -12708.2570   -12708.3256  0.0294 -3.7705
siesta:   22   -12710.5241   -12709.6139   -12709.6799  0.0189 -3.7688
siesta:   23   -12710.5217   -12710.4649   -12710.5325  0.0130 -3.7636
siesta:   24   -12710.5216   -12710.8503   -12710.9181  0.0072 -3.7585
siesta:   25   -12710.5207   -12710.9500   -12711.0174  0.0060 -3.7564
siesta:   26   -12710.5207   -12710.8877   -12710.9554  0.0050 -3.7557
siesta:   27   -12710.5206   -12710.8811   -12710.9487  0.0029 -3.7566
siesta:   28   -12710.5205   -12710.7711   -12710.8386  0.0018 -3.7576
siesta:   29   -12710.5205   -12710.6759   -12710.7435  0.0013 -3.7577
siesta:   30   -12710.5205   -12710.6357   -12710.7034  0.0008 -3.7576
siesta:   31   -12710.5205   -12710.6347   -12710.7024  0.0005 -3.7578
siesta:   32   -12710.5204   -12710.5697   -12710.6374  0.0003 -3.7580
siesta:   33   -12710.5205   -12710.5416   -12710.6093  0.0002 -3.7580
siesta:   34   -12710.5204   -12710.5410   -12710.6086  0.0001 -3.7580
siesta:   35   -12710.5205   -12710.5398   -12710.6075  0.0001 -3.7580

siesta: E_KS(eV) =           -12710.5362

siesta: E_KS - E_eggbox =    -12710.5362

siesta: Atomic forces (eV/Ang):
----------------------------------------
   Tot   -0.190256   -0.189648    0.000000
----------------------------------------
   Max  687.883767
   Res  165.706941    sqrt( Sum f_i^2 / 3N )
----------------------------------------
   Max  687.883767    constrained

Stress-tensor-Voigt (kbar):     -695.35    -2927.08       -0.02       -0.86        0.00        0.00
(Free)E + p*V (eV/cell)   -11283.7839
Target enthalpy (eV/cell)   -12710.6039

siesta: Stress tensor (static) (eV/Ang**3):
        -0.433997   -0.000538    0.000000
        -0.000538   -1.826922    0.000000
         0.000000    0.000000   -0.000014

siesta: Pressure (static):       1207.48461515  kBar

siesta: Stress tensor (total) (eV/Ang**3):
        -0.433997   -0.000538    0.000000
        -0.000538   -1.826922    0.000000
         0.000000    0.000000   -0.000014

siesta: Pressure (total):       1207.48461515  kBar

siesta: Temp_ion =       0.000 K

* Maximum dynamic memory allocated =   202 MB
Computing bands...

siesta: Program's energy decomposition (eV):
siesta: Ebs     =     -5033.319092
siesta: Eions   =     21617.947954
siesta: Ena     =      4913.619879
siesta: Ekin    =     11015.076123
siesta: Enl     =     -1561.639716
siesta: DEna    =      -741.343187
siesta: DUscf   =       105.646310
siesta: DUext   =         0.000000
siesta: Exc     =     -4823.947659
siesta: eta*DQ  =         0.000000
siesta: Emadel  =         0.000000
siesta: Emeta   =         0.000000
siesta: Emolmec =         0.000000
siesta: Ekinion =         0.000000
siesta: Eharris =    -12710.520458
siesta: Etot    =    -12710.536205
siesta: FreeEng =    -12710.603866

siesta: Final energy (eV):
siesta:  Band Struct. =   -5033.319092
siesta:       Kinetic =   11015.076123
siesta:       Hartree =   34998.442391
siesta:    Ext. field =       0.000000
siesta:   Exch.-corr. =   -4823.947659
siesta:  Ion-electron =  -80562.112118
siesta:       Ion-ion =   26662.005058
siesta:       Ekinion =       0.000000
siesta:         Total =  -12710.536205

siesta: Atomic forces (eV/Ang):
siesta:      1    0.025351 -118.952733    0.000000
siesta:      2    0.336639   -0.500597    0.000000
siesta:      3    0.080695    0.566743    0.000000
siesta:      4   -0.005832   -0.503112    0.000000
siesta:      5   -0.389311   -4.929356    0.000000
siesta:      6    2.914737   -0.386167    0.000000
siesta:      7    1.738953    0.896324    0.000000
siesta:      8   -0.318719   -1.195159    0.000000
siesta:      9   -2.999518   -0.192914    0.000000
siesta:     10   -2.089916    0.929876    0.000000
siesta:     11   -1.404840   -3.157808    0.000000
siesta:     12    1.098064    1.523410    0.000000
siesta:     13    1.065121   -1.797724    0.000000
siesta:     14    1.400293    3.165794    0.000000
siesta:     15    1.468793   -3.216023    0.000000
siesta:     16   -1.328916    3.422745    0.000000
siesta:     17    0.687282    0.815435    0.000000
siesta:     18   -0.264205    2.944978    0.000000
siesta:     19   -0.017339    1.505628    0.000000
siesta:     20   -0.491343 -652.632965    0.000000
siesta:     21   -0.362816  539.971230    0.000000
siesta:     22    1.616237  127.610344    0.000000
siesta:     23  -19.495514 -551.500011    0.000000
siesta:     24   -1.419754  128.197562    0.000000
siesta:     25   19.466180 -551.651369    0.000000
siesta:     26   25.765089    6.619319    0.000000
siesta:     27   33.478671 -549.578713    0.000000
siesta:     28    1.736059   -0.261255    0.000000
siesta:     29   -3.024147    1.513699    0.000000
siesta:     30    1.335483    1.487707    0.000000
siesta:     31   -0.847642   -0.240307    0.000000
siesta:     32  -25.722049    7.042376    0.000000
siesta:     33  -33.600655 -549.708272    0.000000
siesta:     34   18.950167  553.098793    0.000000
siesta:     35   -0.001161 -126.578579    0.000000
siesta:     36   34.828290  550.212696    0.000000
siesta:     37   26.084859   -6.925296    0.000000
siesta:     38   -2.963104   -1.375428    0.000000
siesta:     39    1.977629   -0.192859    0.000000
siesta:     40   -0.998802    0.472148    0.000000
siesta:     41    1.492240   -1.410212    0.000000
siesta:     42   -0.843636    4.097588    0.000000
siesta:     43   -0.785334   -4.153818    0.000000
siesta:     44  -18.916001  552.551272    0.000000
siesta:     45    0.223760 -125.999872    0.000000
siesta:     46    0.246454  549.218479    0.000000
siesta:     47    0.024489 -128.715532    0.000000
siesta:     48   14.141872  558.857020    0.000000
siesta:     49   24.742948   -4.330624    0.000000
siesta:     50   -1.366145    3.368792    0.000000
siesta:     51  -35.098803  550.417874    0.000000
siesta:     52  -26.369330   -7.356393    0.000000
siesta:     53  -13.814485  558.998455    0.000000
siesta:     54  -24.598771   -4.826603    0.000000
siesta:     55    0.377941  687.883767    0.000000
siesta:     56    2.490417   -0.748646    0.000000
siesta:     57   -1.346095    0.155623    0.000000
siesta:     58    1.353554    3.685288    0.000000
siesta:     59   -0.774942    2.650241    0.000000
siesta:     60   -0.888981   -2.569126    0.000000
siesta:     61   -2.374949   -2.670498    0.000000
siesta:     62    0.144182 -573.314329    0.000000
siesta:     63    2.428637   -2.978430    0.000000
siesta:     64   23.913893    2.752281    0.000000
siesta:     65    7.750647 -556.670642    0.000000
siesta:     66  -23.752082    2.998347    0.000000
siesta:     67   -7.910590 -556.426783    0.000000
siesta:     68   -1.344673   -0.456355    0.000000
siesta:     69    2.507108    0.828985    0.000000
siesta:     70    0.023214  123.409661    0.000000
siesta:     71   -0.045753 -548.357437    0.000000
siesta:     72   -0.130052  112.401818    0.000000
siesta: ----------------------------------------
siesta:    Tot   -0.190256   -0.189648    0.000000

siesta: Stress tensor (static) (eV/Ang**3):
siesta:    -0.433997   -0.000538    0.000000
siesta:    -0.000538   -1.826922    0.000000
siesta:     0.000000    0.000000   -0.000014

siesta: Cell volume =       1893.226884 Ang**3

siesta: Pressure (static):
siesta:                Solid            Molecule  Units
siesta:           0.00820815          0.12980672  Ry/Bohr**3
siesta:           0.75364447         11.91841116  eV/Ang**3
siesta:        1207.48461515      19095.60627093  kBar
(Free)E+ p_basis*V_orbitals  =      -12682.725520
(Free)Eharris+ p_basis*V_orbitals  =      -12682.706176

siesta: Electric dipole (a.u.)  =    0.000000    0.000000    0.000000
siesta: Electric dipole (Debye) =    0.000000    0.000000    0.000000

* Maximum dynamic memory allocated : Node    0 =   202 MB
* Maximum dynamic memory allocated : Node    1 =    72 MB
* Maximum dynamic memory allocated : Node    2 =    74 MB
* Maximum dynamic memory allocated : Node    3 =   194 MB
* Maximum dynamic memory allocated : Node    4 =   183 MB
* Maximum dynamic memory allocated : Node    5 =    69 MB
* Maximum dynamic memory allocated : Node    6 =    70 MB
* Maximum dynamic memory allocated : Node    7 =   167 MB

* Maximum memory occured during matrixMtoO                    

timer: CPU execution times:
timer:  Routine       Calls   Time/call    Tot.time        %
timer:  siesta            1  147195.536  147195.536   100.00
timer:  Setup             1       3.067       3.067     0.00
timer:  bands             3     273.077     819.232     0.56
timer:  writewave         1       0.018       0.018     0.00
timer:  KSV_init          1       0.003       0.003     0.00
timer:  IterMD            1  146367.350  146367.350    99.44
timer:  hsparse           1       0.230       0.230     0.00
timer:  overlap           1       7.707       7.707     0.01
timer:  IterSCF          35    4177.030  146196.041    99.32
timer:  kinefsm           2       3.959       7.917     0.01
timer:  nlefsm            2      18.474      36.947     0.03
timer:  DHSCF            36      88.893    3200.154     2.17
timer:  DHSCF1            1       0.768       0.768     0.00
timer:  DHSCF2            1      33.707      33.707     0.02
timer:  REORD           290       0.011       3.095     0.00
timer:  POISON           37       2.480      91.775     0.06
timer:  DHSCF3           36      87.046    3133.654     2.13
timer:  rhoofd           36      16.781     604.105     0.41
timer:  cellXC           36       3.449     124.159     0.08
timer:  vmat             36      41.809    1505.128     1.02
timer:  MolMec            2       0.000       0.000     0.00
timer:  diagon           35    4086.823  143038.817    97.18
timer:  c-eigval       8206       6.772   55572.715    37.75
timer:  c-buildHS      8206       0.123    1011.646     0.69
timer:  cdiag         16291       6.984  113781.695    77.30
timer:  cdiag1        16291       0.434    7067.022     4.80
timer:  cdiag2        16291       1.927   31399.337    21.33
timer:  cdiag3        16291       3.998   65125.210    44.24
timer:  cdiag4        16291       0.209    3411.792     2.32
timer:  c-eigvec       8085       7.385   59708.329    40.56
timer:  c-buildD       8085       3.529   28531.137    19.38
timer:  DHSCF4            1      29.836      29.836     0.02
timer:  dfscf             1      28.018      28.018     0.02
timer:  overfsm           1       0.400       0.400     0.00
timer:  optical           1       5.135       5.135     0.00
  

elaps: ELAPSED times:
elaps:  Routine       Calls   Time/call    Tot.time        %
elaps:  siesta            1   18419.222   18419.222   100.00
elaps:  Setup             1       0.382       0.382     0.00
elaps:  bands             3      34.186     102.559     0.56
elaps:  writewave         1       0.003       0.003     0.00
elaps:  KSV_init          1       0.000       0.000     0.00
elaps:  IterMD            1   18315.604   18315.604    99.44
elaps:  hsparse           1       0.029       0.029     0.00
elaps:  overlap           1       0.966       0.966     0.01
elaps:  IterSCF          35     522.691   18294.175    99.32
elaps:  kinefsm           2       0.495       0.989     0.01
elaps:  nlefsm            2       2.369       4.738     0.03
elaps:  DHSCF            36      11.242     404.708     2.20
elaps:  DHSCF1            1       0.099       0.099     0.00
elaps:  DHSCF2            1       4.213       4.213     0.02
elaps:  REORD           290       0.001       0.400     0.00
elaps:  POISON           37       0.310      11.488     0.06
elaps:  DHSCF3           36      10.890     392.035     2.13
elaps:  rhoofd           36       4.861     174.997     0.95
elaps:  cellXC           36       0.431      15.511     0.08
elaps:  vmat             36       5.230     188.289     1.02
elaps:  MolMec            2       0.000       0.000     0.00
elaps:  diagon           35     511.400   17899.003    97.18
elaps:  c-eigval       8206       0.847    6953.170    37.75
elaps:  c-buildHS      8206       0.017     137.278     0.75
elaps:  cdiag         16291       0.876   14266.785    77.46
elaps:  cdiag1        16291       0.054     885.431     4.81
elaps:  cdiag2        16291       0.241    3929.220    21.33
elaps:  cdiag3        16291       0.501    8159.399    44.30
elaps:  cdiag4        16291       0.026     431.612     2.34
elaps:  c-eigvec       8085       0.932    7534.915    40.91
elaps:  c-buildD       8085       0.434    3507.053    19.04
elaps:  DHSCF4            1       8.057       8.057     0.04
elaps:  dfscf             1       7.662       7.662     0.04
elaps:  overfsm           1       0.047       0.047     0.00
elaps:  optical           1       0.000       0.000     0.00
  
>> End of run:  29-APR-2016   4:38:04
