Siesta Version:                                        siesta-3.2-pl-3
Architecture  : x86_64-unknown-linux-gnu--unknown
Compiler flags: mpiifort -g -O2 -fPIC -xSSE4.1 -fp-model source -shared-intel 
PARALLEL version

* Running on   12 nodes in parallel
>> Start of run:   6-APR-2016  14:44:28

                           ***********************       
                           *  WELCOME TO SIESTA  *       
                           ***********************       

reinit: Reading from standard input
************************** Dump of input data file ****************************
#(1) General system descriptors
SystemName            GRP_doping    # Descriptive name of the system
SystemLabel           GRP_doping    # Short name for naming files
%include STRUCT.fdf
%include KPT.fdf
%include BASIS.fdf
#%include TS.fdf # for transiesta calculation
#(4) DFT, Grid, SCF
XC.functional         GGA           # LDA or GGA (default = LDA)
XC.authors            PBE           # CA (Ceperley-Aldr) = PZ
                                    #    (Perdew-Zunger) - LDA - Default
                                    # PW92 (Perdew-Wang-92) - LDA
                                    # PBE (Perdew-Burke-Ernzerhof) - GGA
MeshCutoff            200.000000    Ry      # Default: 50.0 Ry ~ 0.444 Bohr
                                    #         100.0 Ry ~ 0.314 Bohr
MaxSCFIterations      500           # Default: 50
DM.MixingWeight       0.05          # Default: 0.25
DM.NumberPulay        10            # Default: 0
DM.PulayOnFile        F             # SystemLabel.P1, SystemLabel.P2
DM.Tolerance          1.d-4         # Default: 1.d-4
DM.UseSaveDM          .true.        # because of the bug
SCFMustConverge       .true.
NeglNonOverlapInt     F             # Default: F
Diag.ParallelOverK    .true.
#(5) Eigenvalue problem: order-N or diagonalization
SolutionMethod        Diagon        # or Transiesta
ElectronicTemperature 300.0 K       # Default: 300.0 K
#(6) Molecular dynamics and relaxations
#MD.TypeOfRun          CG            # Type of dynamics:
#MD.VariableCell       F
#MD.NumCGsteps         0           # 0 for single-point / 100 for gopt
#MD.MaxCGDispl         0.2 Bohr      # Default: 0.2 Bohr
#MD.MaxForceTol        0.02 eV/Ang   # Default: 0.04 eV/Ang
#MD.MaxStressTol       1.0 GPa       # Default: 1.0 GPa
************************** End of input data file *****************************

reinit: -----------------------------------------------------------------------
reinit: System Name: GRP_doping
reinit: -----------------------------------------------------------------------
reinit: System Label: GRP_doping                                                  
reinit: -----------------------------------------------------------------------

initatom: Reading input for the pseudopotentials and atomic orbitals ----------
 Species number:            1  Label: C Atomic number:           6
 Species number:            2  Label: N Atomic number:           7
Ground state valence configuration:   2s02  2p02
Reading pseudopotential information in formatted form from C.psf

Valence configuration for pseudopotential generation:
2s( 2.00) rc: 1.54
2p( 2.00) rc: 1.54
3d( 0.00) rc: 1.54
4f( 0.00) rc: 1.54
Ground state valence configuration:   2s02  2p03
Reading pseudopotential information in formatted form from N.psf

Valence configuration for pseudopotential generation:
2s( 2.00) rc: 1.48
2p( 3.00) rc: 1.48
3d( 0.00) rc: 1.48
4f( 0.00) rc: 1.48
For C, standard SIESTA heuristics set lmxkb to 3
 (one more than the basis l, including polarization orbitals).
Use PS.lmax or PS.KBprojectors blocks to override.
For N, standard SIESTA heuristics set lmxkb to 3
 (one more than the basis l, including polarization orbitals).
Use PS.lmax or PS.KBprojectors blocks to override.

<basis_specs>
===============================================================================
C                    Z=   6    Mass=  12.010        Charge= 0.17977+309
Lmxo=1 Lmxkb= 3    BasisType=split      Semic=F
L=0  Nsemic=0  Cnfigmx=2
          n=1  nzeta=2  polorb=0
            splnorm:   0.15000    
               vcte:    0.0000    
               rinn:    0.0000    
                rcs:    0.0000      0.0000    
            lambdas:    1.0000      1.0000    
L=1  Nsemic=0  Cnfigmx=2
          n=1  nzeta=2  polorb=1
            splnorm:   0.15000    
               vcte:    0.0000    
               rinn:    0.0000    
                rcs:    0.0000      0.0000    
            lambdas:    1.0000      1.0000    
-------------------------------------------------------------------------------
L=0  Nkbl=1  erefs: 0.17977+309
L=1  Nkbl=1  erefs: 0.17977+309
L=2  Nkbl=1  erefs: 0.17977+309
L=3  Nkbl=1  erefs: 0.17977+309
===============================================================================
</basis_specs>

atom: Called for C                     (Z =   6)

read_vps: Pseudopotential generation method:
read_vps: ATM3      Troullier-Martins                       
Total valence charge:    4.00000

read_vps: Pseudopotential includes a core correction:
read_vps: Pseudo-core for xc-correction

xc_check: Exchange-correlation functional:
xc_check: GGA Perdew, Burke & Ernzerhof 1996
V l=0 = -2*Zval/r beyond r=  1.5227
V l=1 = -2*Zval/r beyond r=  1.5227
V l=2 = -2*Zval/r beyond r=  1.5227
V l=3 = -2*Zval/r beyond r=  1.5038
All V_l potentials equal beyond r=  1.5227
This should be close to max(r_c) in ps generation
All pots = -2*Zval/r beyond r=  1.5227

VLOCAL1: 99.0% of the norm of Vloc inside     18.722 Ry
VLOCAL1: 99.9% of the norm of Vloc inside     42.668 Ry
atom: Maximum radius for 4*pi*r*r*local-pseudopot. charge    1.83678
atom: Maximum radius for r*vlocal+2*Zval:    1.58088
GHOST: No ghost state for L =  0
GHOST: No ghost state for L =  1
GHOST: No ghost state for L =  2
GHOST: No ghost state for L =  3

KBgen: Kleinman-Bylander projectors: 
   l= 0   rc=  1.704034   el= -1.009801   Ekb=  5.335044   kbcos=  0.316824
   l= 1   rc=  1.704034   el= -0.388707   Ekb= -3.785862   kbcos= -0.366464
   l= 2   rc=  1.791422   el=  0.001971   Ekb= -0.970471   kbcos= -0.009212
   l= 3   rc=  1.859892   el=  0.003065   Ekb= -0.399525   kbcos= -0.001223

KBgen: Total number of  Kleinman-Bylander projectors:   16
atom: -------------------------------------------------------------------------

atom: SANKEY-TYPE ORBITALS:
atom: Selected multiple-zeta basis: split     

SPLIT: Orbitals with angular momentum L= 0

SPLIT: Basis orbitals for state 2s

SPLIT: PAO cut-off radius determined from an
SPLIT: energy shift=  0.007350 Ry

   izeta = 1
                 lambda =    1.000000
                     rc =    4.632753
                 energy =   -1.002270
                kinetic =    0.855760
    potential(screened) =   -1.858031
       potential(ionic) =   -5.417575

   izeta = 2
                 rmatch =    3.431921
              splitnorm =    0.150000
                 energy =   -0.867111
                kinetic =    1.300804
    potential(screened) =   -2.167915
       potential(ionic) =   -5.962684

SPLIT: Orbitals with angular momentum L= 1

SPLIT: Basis orbitals for state 2p

SPLIT: PAO cut-off radius determined from an
SPLIT: energy shift=  0.007350 Ry

   izeta = 1
                 lambda =    1.000000
                     rc =    5.658549
                 energy =   -0.381140
                kinetic =    2.399701
    potential(screened) =   -2.780841
       potential(ionic) =   -6.206085

   izeta = 2
                 rmatch =    3.653288
              splitnorm =    0.150000
                 energy =   -0.249149
                kinetic =    3.542762
    potential(screened) =   -3.791911
       potential(ionic) =   -7.581078

POLgen: Perturbative polarization orbital with L=  2

POLgen: Polarization orbital for state 2p

   izeta = 1
                     rc =    5.658549
                 energy =    1.109913
                kinetic =    2.304789
    potential(screened) =   -1.194876
       potential(ionic) =   -4.013592
atom: Total number of Sankey-type orbitals: 13

atm_pop: Valence configuration (for local Pseudopot. screening):
 2s( 2.00)                                                            
 2p( 2.00)                                                            
Vna: chval, zval:    4.00000   4.00000

Vna:  Cut-off radius for the neutral-atom potential:   5.658549
comcore: Pseudo-core radius Rcore=  1.791422

atom: _________________________________________________________________________

<basis_specs>
===============================================================================
N                    Z=   7    Mass=  14.010        Charge= 0.17977+309
Lmxo=1 Lmxkb= 3    BasisType=split      Semic=F
L=0  Nsemic=0  Cnfigmx=2
          n=1  nzeta=2  polorb=0
            splnorm:   0.15000    
               vcte:    0.0000    
               rinn:    0.0000    
                rcs:    0.0000      0.0000    
            lambdas:    1.0000      1.0000    
L=1  Nsemic=0  Cnfigmx=2
          n=1  nzeta=2  polorb=1
            splnorm:   0.15000    
               vcte:    0.0000    
               rinn:    0.0000    
                rcs:    0.0000      0.0000    
            lambdas:    1.0000      1.0000    
-------------------------------------------------------------------------------
L=0  Nkbl=1  erefs: 0.17977+309
L=1  Nkbl=1  erefs: 0.17977+309
L=2  Nkbl=1  erefs: 0.17977+309
L=3  Nkbl=1  erefs: 0.17977+309
===============================================================================
</basis_specs>

atom: Called for N                     (Z =   7)

read_vps: Pseudopotential generation method:
read_vps: ATM3      Troullier-Martins                       
Total valence charge:    5.00000

read_vps: Pseudopotential includes a core correction:
read_vps: Pseudo-core for xc-correction

xc_check: Exchange-correlation functional:
xc_check: GGA Perdew, Burke & Ernzerhof 1996
V l=0 = -2*Zval/r beyond r=  1.4606
V l=1 = -2*Zval/r beyond r=  1.4606
V l=2 = -2*Zval/r beyond r=  1.4606
V l=3 = -2*Zval/r beyond r=  1.4606
All V_l potentials equal beyond r=  1.4606
This should be close to max(r_c) in ps generation
All pots = -2*Zval/r beyond r=  1.4606

VLOCAL1: 99.0% of the norm of Vloc inside     20.347 Ry
VLOCAL1: 99.9% of the norm of Vloc inside     46.372 Ry
atom: Maximum radius for 4*pi*r*r*local-pseudopot. charge    1.76189
atom: Maximum radius for r*vlocal+2*Zval:    1.53550
GHOST: No ghost state for L =  0
GHOST: No ghost state for L =  1
GHOST: No ghost state for L =  2
GHOST: No ghost state for L =  3

KBgen: Kleinman-Bylander projectors: 
   l= 0   rc=  1.634559   el= -1.363963   Ekb=  5.296955   kbcos=  0.335621
   l= 1   rc=  1.614250   el= -0.521451   Ekb= -5.259161   kbcos= -0.433408
   l= 2   rc=  1.718383   el=  0.001991   Ekb= -1.271464   kbcos= -0.007566
   l= 3   rc=  1.761893   el=  0.003093   Ekb= -0.494769   kbcos= -0.001015

KBgen: Total number of  Kleinman-Bylander projectors:   16
atom: -------------------------------------------------------------------------

atom: SANKEY-TYPE ORBITALS:
atom: Selected multiple-zeta basis: split     

SPLIT: Orbitals with angular momentum L= 0

SPLIT: Basis orbitals for state 2s

SPLIT: PAO cut-off radius determined from an
SPLIT: energy shift=  0.007350 Ry

   izeta = 1
                 lambda =    1.000000
                     rc =    4.071465
                 energy =   -1.356470
                kinetic =    1.176977
    potential(screened) =   -2.533447
       potential(ionic) =   -8.057990

   izeta = 2
                 rmatch =    2.905100
              splitnorm =    0.150000
                 energy =   -1.158343
                kinetic =    1.813009
    potential(screened) =   -2.971352
       potential(ionic) =   -8.901931

SPLIT: Orbitals with angular momentum L= 1

SPLIT: Basis orbitals for state 2p

SPLIT: PAO cut-off radius determined from an
SPLIT: energy shift=  0.007350 Ry

   izeta = 1
                 lambda =    1.000000
                     rc =    4.972977
                 energy =   -0.513884
                kinetic =    3.441732
    potential(screened) =   -3.955616
       potential(ionic) =   -9.287901

   izeta = 2
                 rmatch =    3.054066
              splitnorm =    0.150000
                 energy =   -0.318226
                kinetic =    5.125348
    potential(screened) =   -5.443573
       potential(ionic) =  -11.380999

POLgen: Perturbative polarization orbital with L=  2

POLgen: Polarization orbital for state 2p

   izeta = 1
                     rc =    4.972977
                 energy =    1.607437
                kinetic =    3.268125
    potential(screened) =   -1.660688
       potential(ionic) =   -5.973652
atom: Total number of Sankey-type orbitals: 13

atm_pop: Valence configuration (for local Pseudopot. screening):
 2s( 2.00)                                                            
 2p( 3.00)                                                            
Vna: chval, zval:    5.00000   5.00000

Vna:  Cut-off radius for the neutral-atom potential:   4.972977
comcore: Pseudo-core radius Rcore=  1.554824

atom: _________________________________________________________________________

prinput: Basis input ----------------------------------------------------------

PAO.BasisType split     

%block ChemicalSpeciesLabel
    1    6 C                       # Species index, atomic number, species label
    2    7 N                       # Species index, atomic number, species label
%endblock ChemicalSpeciesLabel

%block PAO.Basis                 # Define Basis set
C                     2                    # Species label, number of l-shells
 n=2   0   2                         # n, l, Nzeta 
   4.633      3.432   
   1.000      1.000   
 n=2   1   2 P   1                   # n, l, Nzeta, Polarization, NzetaPol
   5.659      3.653   
   1.000      1.000   
N                     2                    # Species label, number of l-shells
 n=2   0   2                         # n, l, Nzeta 
   4.071      2.905   
   1.000      1.000   
 n=2   1   2 P   1                   # n, l, Nzeta, Polarization, NzetaPol
   4.973      3.054   
   1.000      1.000   
%endblock PAO.Basis

prinput: ----------------------------------------------------------------------

coor:   Atomic-coordinates input format  =     Cartesian coordinates
coor:                                          (in Angstroms)

siesta: Atomic coordinates (Bohr) and species
siesta:      2.23554   1.32097   0.00000  1        1
siesta:      4.56367   2.66461   0.00000  1        2
siesta:     32.50328  21.48508   0.00000  1        3
siesta:     34.83141  22.82873   0.00000  1        4
siesta:     34.83116  17.45226   0.00000  1        5
siesta:     37.15930  18.79590   0.00000  1        6
siesta:     32.50291  13.41944   0.00000  1        7
siesta:     34.83104  14.76308   0.00000  1        8
siesta:     30.17465   9.38661   0.00000  1        9
siesta:     32.50278  10.73026   0.00000  1       10
siesta:     27.84639   5.35379   0.00000  1       11
siesta:     30.17453   6.69743   0.00000  1       12
siesta:     27.84714  21.48508   0.00000  1       13
siesta:     30.17527  22.82873   0.00000  1       14
siesta:      6.89168   1.32097   0.00000  1       15
siesta:      9.21981   2.66461   0.00000  1       16
siesta:     13.87595   2.66461   0.00000  1       17
siesta:     16.20396   1.32097   0.00000  1       18
siesta:     18.53210   2.66461   0.00000  1       19
siesta:     23.19013   2.66461   0.00000  1       20
siesta:     25.51813   1.32097   0.00000  1       21
siesta:     27.84627   2.66461   0.00000  1       22
siesta:      6.89193   6.69743   0.00000  1       23
siesta:      9.21994   5.35379   0.00000  1       24
siesta:     11.54807   6.69743   0.00000  1       25
siesta:     13.87608   5.35379   0.00000  1       26
siesta:     16.20421   6.69743   0.00000  1       27
siesta:     18.53411   5.35379   0.00000  1       28
siesta:     20.86224   6.69743   0.00000  1       29
siesta:     23.19025   5.35379   0.00000  1       30
siesta:     25.51838   6.69743   0.00000  1       31
siesta:      9.22019  10.73026   0.00000  1       32
siesta:     11.54820   9.38661   0.00000  1       33
siesta:     13.87633  10.73026   0.00000  1       34
siesta:     18.53247  10.73026   0.00000  1       35
siesta:     20.86237   9.38661   0.00000  1       36
siesta:     23.19050  10.73026   0.00000  1       37
siesta:      9.22031  13.41944   0.00000  1       38
siesta:     11.54845  14.76308   0.00000  1       39
siesta:     13.87645  13.41944   0.00000  1       40
siesta:     16.20459  14.76308   0.00000  1       41
siesta:     18.53448  13.41944   0.00000  1       42
siesta:     20.86262  14.76308   0.00000  1       43
siesta:     13.87670  18.79590   0.00000  1       44
siesta:     16.20471  17.45226   0.00000  1       45
siesta:     18.53284  18.79590   0.00000  1       46
siesta:     13.87683  21.48508   0.00000  1       47
siesta:     16.20496  22.82873   0.00000  1       48
siesta:     18.53486  21.48508   0.00000  1       49
siesta:     20.86299  22.82873   0.00000  1       50
siesta:     27.84664  10.73026   0.00000  1       51
siesta:     23.19063  13.41944   0.00000  1       52
siesta:     25.51876  14.76308   0.00000  1       53
siesta:     23.19088  18.79590   0.00000  1       54
siesta:     27.84677  13.41944   0.00000  1       55
siesta:     30.17490  14.76308   0.00000  1       56
siesta:     25.51888  17.45226   0.00000  1       57
siesta:     27.84702  18.79590   0.00000  1       58
siesta:     23.19100  21.48508   0.00000  1       59
siesta:     25.51913  22.82873   0.00000  1       60
siesta:     30.17503  17.45226   0.00000  1       61
siesta:     32.50316  18.79590   0.00000  1       62
siesta:     37.16131  21.48508   0.00000  1       63
siesta:     11.54782   1.32097   0.00000  2       64
siesta:     20.86199   1.32097   0.00000  2       65
siesta:      4.56380   5.35379   0.00000  2       66
siesta:      6.89205   9.38661   0.00000  2       67
siesta:     16.20434   9.38661   0.00000  2       68
siesta:     11.54857  17.45226   0.00000  2       69
siesta:     25.51851   9.38661   0.00000  2       70
siesta:     20.86274  17.45226   0.00000  2       71
siesta:     39.48945  22.82873   0.00000  2       72

siesta: System type = slab      

initatomlists: Number of atoms, orbitals, and projectors:     72   936  1152

siesta: ******************** Simulation parameters ****************************
siesta:
siesta: The following are some of the parameters of the simulation.
siesta: A complete list of the parameters used, including default values,
siesta: can be found in file out.fdf
siesta:
redata: Non-Collinear-spin run           =     F
redata: SpinPolarized (Up/Down) run      =     F
redata: Number of spin components        =     1
redata: Long output                      =     F
redata: Number of Atomic Species         =        2
redata: Charge density info will appear in .RHO file
redata: Write Mulliken Pop.              =     NO
redata: Mesh Cutoff                      =   200.0000  Ry
redata: Net charge of the system         =     0.0000 |e|
redata: Max. number of SCF Iter          =      500
redata: SCF convergence failure will abort job
redata: Performing Pulay mixing using    =    10 iterations
redata: Mix DM in first SCF step ?       =     F
redata: Write Pulay info on disk?        =     F
redata: Discard 1st Pulay DM after  kick =     F
redata: New DM Mixing Weight             =     0.0500
redata: New DM Occupancy tolerance       = 0.000000000001
redata: No kicks to SCF
redata: DM Mixing Weight for Kicks       =     0.5000
redata: DM Tolerance for SCF             =     0.000100
redata: Require Energy convergence for SCF =     F
redata: DM Energy tolerance for SCF      =     0.000100 eV
redata: Require Harris convergence for SCF =     F
redata: DM Harris energy tolerance for SCF =     0.000100 eV
redata: Using Saved Data (generic)   =     F
redata: Use continuation files for DM    =     T
redata: Neglect nonoverlap interactions  =     F
redata: Method of Calculation            =     Diagonalization
redata: Divide and Conquer               =     T
redata: Electronic Temperature           =     0.0019  Ry
redata: Fix the spin of the system       =     F
redata: Dynamics option                  =     Verlet MD run
redata: Initial MD time step             =        1
redata:   Final MD time step             =        1
redata: Length of MD time step           =     1.0000  fs
redata: Initial Temperature of MD run    =     0.0000  K
redata: Perform a MD quench              =     F
redata: ***********************************************************************
Total number of electrons:   297.000000
Total ionic charge:   297.000000

* ProcessorY, Blocksize:    3  24

k-point displ. along   1 input, could be:     0.50    0.00
k-point displ. along   2 input, could be:     0.50    0.00
 Kpoints in:          231 . Kpoints trimmed:          231

siesta: k-grid: Number of k-points =   231
siesta: k-grid: Cutoff (effective) =     5.000 Ang
siesta: k-grid: Supercell and displacements
siesta: k-grid:   21   0   0      0.500
siesta: k-grid:    0  21   0      0.500
siesta: k-grid:    0   0   1      0.000
Naive supercell factors:     2    2    2

superc: Internal auxiliary supercell:     2 x     2 x     2  =       8
superc: Number of atoms, orbitals, and projectors:    576   7488   9216

* Maximum dynamic memory allocated =     4 MB

siesta:                 ==============================
                            Begin MD step =      1
                        ==============================

superc: Internal auxiliary supercell:     2 x     2 x     2  =       8
superc: Number of atoms, orbitals, and projectors:    576   7488   9216

outcell: Unit cell vectors (Ang):
       14.785000    0.000000    0.000000
        7.393000   12.805052    0.000000
        0.000000    0.000000   10.000000

outcell: Cell vector modules (Ang)   :   14.785000   14.786000   10.000000
outcell: Cell angles (23,13,12) (deg):     90.0000     90.0000     60.0000
outcell: Cell volume (Ang**3)        :   1893.2269
New_DM. Step:     1
Initializing Density Matrix...

iodm: Reading Density Matrix from files

InitMesh: MESH =   120 x   120 x    90 =     1296000
InitMesh: Mesh cutoff (required, used) =   200.000   223.865 Ry

* Maximum dynamic memory allocated =   134 MB

stepf: Fermi-Dirac step function

siesta: Program's energy decomposition (eV):
siesta: Ebs     =     -4185.203119
siesta: Eions   =     19849.732669
siesta: Ena     =      4064.199982
siesta: Ekin    =      8579.947147
siesta: Enl     =     -1058.962440
siesta: DEna    =      -247.430560
siesta: DUscf   =        22.386845
siesta: DUext   =         0.000000
siesta: Exc     =     -4250.461672
siesta: eta*DQ  =         0.000000
siesta: Emadel  =         0.000000
siesta: Emeta   =         0.000000
siesta: Emolmec =         0.000000
siesta: Ekinion =         0.000000
siesta: Eharris =    -12740.052113
siesta: Etot    =    -12740.053367
siesta: FreeEng =    -12740.053367

siesta: iscf   Eharris(eV)      E_KS(eV)   FreeEng(eV)   dDmax  Ef(eV)
siesta:    1   -12740.0521   -12740.0534   -12740.0534  0.0000 -3.4315
timer: Routine,Calls,Time,% = IterSCF        1    1118.121  98.89
elaps: Routine,Calls,Wall,% = IterSCF        1      97.413  98.89

siesta: E_KS(eV) =           -12740.0521

siesta: E_KS - E_eggbox =    -12740.0521

siesta: Atomic forces (eV/Ang):
----------------------------------------
   Tot    0.208832   -0.300101    0.000000
----------------------------------------
   Max    1.078030
   Res    0.319944    sqrt( Sum f_i^2 / 3N )
----------------------------------------
   Max    1.078030    constrained

Stress-tensor-Voigt (kbar):        0.16        0.98        0.14        0.36        0.00        0.00
(Free)E + p*V (eV/cell)   -12740.5942
Target enthalpy (eV/cell)   -12740.0911

siesta: Stress tensor (static) (eV/Ang**3):
         0.000097    0.000228    0.000000
         0.000228    0.000609    0.000000
         0.000000    0.000000    0.000090

siesta: Pressure (static):         -0.42574369  kBar

siesta: Stress tensor (total) (eV/Ang**3):
         0.000097    0.000228    0.000000
         0.000228    0.000609    0.000000
         0.000000    0.000000    0.000090

siesta: Pressure (total):         -0.42574369  kBar

siesta: Temp_ion =       0.000 K

* Maximum dynamic memory allocated =   227 MB

siesta: Program's energy decomposition (eV):
siesta: Ebs     =     -4185.203119
siesta: Eions   =     19849.732669
siesta: Ena     =      4064.199982
siesta: Ekin    =      8579.963758
siesta: Enl     =     -1058.971064
siesta: DEna    =      -247.435432
siesta: DUscf   =        22.387142
siesta: DUext   =         0.000000
siesta: Exc     =     -4250.463829
siesta: eta*DQ  =         0.000000
siesta: Emadel  =         0.000000
siesta: Emeta   =         0.000000
siesta: Emolmec =         0.000000
siesta: Ekinion =         0.000000
siesta: Eharris =    -12740.052113
siesta: Etot    =    -12740.052112
siesta: FreeEng =    -12740.091073

siesta: Final energy (eV):
siesta:  Band Struct. =   -4185.203119
siesta:       Kinetic =    8579.963758
siesta:       Hartree =   24801.693551
siesta:    Ext. field =       0.000000
siesta:   Exch.-corr. =   -4250.463829
siesta:  Ion-electron =  -57579.620452
siesta:       Ion-ion =   15708.374860
siesta:       Ekinion =       0.000000
siesta:         Total =  -12740.052112

siesta: Atomic forces (eV/Ang):
siesta:      1    0.741484    0.613165    0.000000
siesta:      2   -0.390567    0.376216    0.000000
siesta:      3   -0.222808    0.364610    0.000000
siesta:      4    0.698780    0.644847    0.000000
siesta:      5    0.250608   -0.450315    0.000000
siesta:      6    0.821954    0.437768    0.000000
siesta:      7    0.653021   -0.427007    0.000000
siesta:      8   -0.468199    0.492867    0.000000
siesta:      9    0.265986   -0.045216    0.000000
siesta:     10    0.232650    0.108823    0.000000
siesta:     11    0.617025    0.607609    0.000000
siesta:     12    0.239335   -1.078030    0.000000
siesta:     13    0.196204    0.596107    0.000000
siesta:     14    0.119428   -0.552329    0.000000
siesta:     15    0.558849   -0.069862    0.000000
siesta:     16    0.655531   -0.541841    0.000000
siesta:     17   -0.151576   -0.471573    0.000000
siesta:     18    0.019491    0.177951    0.000000
siesta:     19    0.222606   -0.382798    0.000000
siesta:     20    0.060193   -0.890688    0.000000
siesta:     21   -0.310471   -0.475843    0.000000
siesta:     22   -1.019902   -0.537762    0.000000
siesta:     23   -0.510131   -0.053724    0.000000
siesta:     24   -0.202805    0.174148    0.000000
siesta:     25   -0.075221    0.010376    0.000000
siesta:     26   -0.266814    0.309953    0.000000
siesta:     27    0.050069    0.074927    0.000000
siesta:     28    0.038897    0.210183    0.000000
siesta:     29    0.195112   -0.031538    0.000000
siesta:     30   -0.047989    0.321147    0.000000
siesta:     31   -0.053705    0.569117    0.000000
siesta:     32   -0.283715   -0.020319    0.000000
siesta:     33    0.181960   -0.234400    0.000000
siesta:     34    0.146530   -0.120504    0.000000
siesta:     35    0.097593   -0.025852    0.000000
siesta:     36   -0.201117   -0.313749    0.000000
siesta:     37    0.377910    0.083239    0.000000
siesta:     38    0.195582   -0.163221    0.000000
siesta:     39   -0.189497    0.304491    0.000000
siesta:     40    0.187661    0.002873    0.000000
siesta:     41    0.102728    0.185832    0.000000
siesta:     42   -0.384259    0.062174    0.000000
siesta:     43    0.216872    0.358932    0.000000
siesta:     44   -0.659858    0.859090    0.000000
siesta:     45    0.302740   -0.339014    0.000000
siesta:     46    0.450541   -0.225967    0.000000
siesta:     47   -0.782009   -0.476549    0.000000
siesta:     48   -0.377701   -0.192899    0.000000
siesta:     49    0.532273   -0.426765    0.000000
siesta:     50   -0.706460    0.382547    0.000000
siesta:     51   -0.433739   -0.742854    0.000000
siesta:     52   -0.178692   -0.135550    0.000000
siesta:     53    0.593775    0.205269    0.000000
siesta:     54   -0.565242   -0.079165    0.000000
siesta:     55   -0.616607    0.078372    0.000000
siesta:     56   -0.074602   -0.140728    0.000000
siesta:     57   -0.329770   -0.444236    0.000000
siesta:     58   -0.261951    0.102436    0.000000
siesta:     59    0.136793   -0.135990    0.000000
siesta:     60   -0.044541    0.507080    0.000000
siesta:     61    0.023534   -0.082783    0.000000
siesta:     62    0.214938    0.195796    0.000000
siesta:     63    0.258057    0.078281    0.000000
siesta:     64   -0.187060    0.168560    0.000000
siesta:     65   -0.375086    0.006212    0.000000
siesta:     66    0.166541    0.983605    0.000000
siesta:     67   -0.243863   -0.527214    0.000000
siesta:     68   -0.204455   -0.040106    0.000000
siesta:     69   -0.176448   -0.484574    0.000000
siesta:     70    0.045103    0.053505    0.000000
siesta:     71   -0.044294   -0.030108    0.000000
siesta:     72    0.381633    0.382862    0.000000
siesta: ----------------------------------------
siesta:    Tot    0.208832   -0.300101    0.000000

siesta: Stress tensor (static) (eV/Ang**3):
siesta:     0.000097    0.000228    0.000000
siesta:     0.000228    0.000609    0.000000
siesta:     0.000000    0.000000    0.000090

siesta: Cell volume =       1893.226895 Ang**3

siesta: Pressure (static):
siesta:                Solid            Molecule  Units
siesta:          -0.00000289         -0.00006269  Ry/Bohr**3
siesta:          -0.00026573         -0.00575576  eV/Ang**3
siesta:          -0.42574369         -9.22184375  kBar
(Free)E+ p_basis*V_orbitals  =      -12710.640127
(Free)Eharris+ p_basis*V_orbitals  =      -12710.638873

siesta: Electric dipole (a.u.)  =    0.000000    0.000000    0.000000
siesta: Electric dipole (Debye) =    0.000000    0.000000    0.000000

* Maximum dynamic memory allocated : Node    0 =   227 MB
* Maximum dynamic memory allocated : Node    1 =   143 MB
* Maximum dynamic memory allocated : Node    2 =   144 MB
* Maximum dynamic memory allocated : Node    3 =   217 MB
* Maximum dynamic memory allocated : Node    4 =   224 MB
* Maximum dynamic memory allocated : Node    5 =   139 MB
* Maximum dynamic memory allocated : Node    6 =   140 MB
* Maximum dynamic memory allocated : Node    7 =   218 MB
* Maximum dynamic memory allocated : Node    8 =   224 MB
* Maximum dynamic memory allocated : Node    9 =   139 MB
* Maximum dynamic memory allocated : Node   10 =   140 MB
* Maximum dynamic memory allocated : Node   11 =   218 MB

* Maximum memory occured during cdiag                         

timer: CPU execution times:
timer:  Routine       Calls   Time/call    Tot.time        %
timer:  siesta            1    1241.344    1241.344   100.00
timer:  Setup             1       3.244       3.244     0.26
timer:  bands             1       0.011       0.011     0.00
timer:  writewave         1       0.024       0.024     0.00
timer:  KSV_init          1       0.003       0.003     0.00
timer:  IterMD            1    1231.744    1231.744    99.23
timer:  hsparse           1       0.180       0.180     0.01
timer:  overlap           1       6.022       6.022     0.49
timer:  IterSCF           1    1118.121    1118.121    90.07
timer:  kinefsm           2       3.051       6.102     0.49
timer:  nlefsm            2      18.491      36.982     2.98
timer:  DHSCF             2      78.973     157.947    12.72
timer:  DHSCF1            1       0.897       0.897     0.07
timer:  DHSCF2            1      24.779      24.779     2.00
timer:  REORD            18       0.002       0.042     0.00
timer:  POISON            3       0.621       1.863     0.15
timer:  DHSCF3            2      55.753     111.505     8.98
timer:  rhoofd            2      11.341      22.682     1.83
timer:  cellXC            2       2.764       5.528     0.45
timer:  vmat              2      27.433      54.866     4.42
timer:  MolMec            2       0.000       0.000     0.00
timer:  diagon            1     992.831     992.831    79.98
timer:  cdiag            40      17.099     657.845    52.99
timer:  cdiag1           40       0.890      34.274     2.76
timer:  cdiag2           40       3.099     119.307     9.61
timer:  cdiag3           40      12.903     496.299    39.98
timer:  cdiag4           40       0.204       7.838     0.63
timer:  DHSCF4            1      20.719      20.719     1.67
timer:  dfscf             1      19.288      19.288     1.55
timer:  overfsm           1       0.263       0.263     0.02
timer:  optical           1       5.672       5.672     0.46
  

elaps: ELAPSED times:
elaps:  Routine       Calls   Time/call    Tot.time        %
elaps:  siesta            1     108.154     108.154   100.00
elaps:  Setup             1       0.285       0.285     0.26
elaps:  bands             1       0.001       0.001     0.00
elaps:  writewave         1       0.002       0.002     0.00
elaps:  KSV_init          1       0.000       0.000     0.00
elaps:  IterMD            1     107.313     107.313    99.22
elaps:  hsparse           1       0.018       0.018     0.02
elaps:  overlap           1       0.703       0.703     0.65
elaps:  IterSCF           1      97.413      97.413    90.07
elaps:  kinefsm           2       0.406       0.812     0.75
elaps:  nlefsm            2       1.579       3.158     2.92
elaps:  DHSCF             2       7.615      15.230    14.08
elaps:  DHSCF1            1       0.077       0.077     0.07
elaps:  DHSCF2            1       2.160       2.160     2.00
elaps:  REORD            18       0.000       0.005     0.00
elaps:  POISON            3       0.055       0.164     0.15
elaps:  DHSCF3            2       4.859       9.718     8.99
elaps:  rhoofd            2       1.672       3.345     3.09
elaps:  cellXC            2       0.241       0.482     0.45
elaps:  vmat              2       2.391       4.781     4.42
elaps:  MolMec            2       0.000       0.000     0.00
elaps:  diagon            1      86.496      86.496    79.97
elaps:  cdiag            40       1.472      58.861    54.42
elaps:  cdiag1           40       0.080       3.208     2.97
elaps:  cdiag2           40       0.280      11.217    10.37
elaps:  cdiag3           40       1.091      43.648    40.36
elaps:  cdiag4           40       0.019       0.777     0.72
elaps:  DHSCF4            1       3.270       3.270     3.02
elaps:  dfscf             1       3.084       3.084     2.85
elaps:  overfsm           1       0.027       0.027     0.03
elaps:  optical           1       0.000       0.000     0.00
  
>> End of run:   6-APR-2016  14:46:16
