Siesta Version:                                        siesta-3.2-pl-3
Architecture  : x86_64-unknown-linux-gnu--unknown
Compiler flags: mpiifort -g -O2 -fPIC -xSSE4.1 -fp-model source -shared-intel 
PARALLEL version

* Running on    8 nodes in parallel
>> Start of run:   1-MAY-2016   3:25:31

                           ***********************       
                           *  WELCOME TO SIESTA  *       
                           ***********************       

reinit: Reading from standard input
************************** Dump of input data file ****************************
#(1) General system descriptors
SystemName            GRP_doping    # Descriptive name of the system
SystemLabel           GRP_doping    # Short name for naming files
%include STRUCT.fdf
%include KPT.fdf
%include BASIS.fdf
#%include TS.fdf # for transiesta calculation
#(4) DFT, Grid, SCF
XC.functional         GGA           # LDA or GGA (default = LDA)
XC.authors            PBE           # CA (Ceperley-Aldr) = PZ
                                    #    (Perdew-Zunger) - LDA - Default
                                    # PW92 (Perdew-Wang-92) - LDA
                                    # PBE (Perdew-Burke-Ernzerhof) - GGA
MeshCutoff            200.000000    Ry      # Default: 50.0 Ry ~ 0.444 Bohr
                                    #         100.0 Ry ~ 0.314 Bohr
MaxSCFIterations      500           # Default: 50
DM.MixingWeight       0.05          # Default: 0.25
DM.NumberPulay        10            # Default: 0
DM.PulayOnFile        F             # SystemLabel.P1, SystemLabel.P2
DM.Tolerance          1.d-4         # Default: 1.d-4
DM.UseSaveDM          .true.        # because of the bug
SCFMustConverge       .true.
NeglNonOverlapInt     F             # Default: F
#(5) Eigenvalue problem: order-N or diagonalization
SolutionMethod        Diagon        # or Transiesta
ElectronicTemperature 300.0 K       # Default: 300.0 K
#(6) Molecular dynamics and relaxations
#MD.TypeOfRun          CG            # Type of dynamics:
#MD.VariableCell       F
#MD.NumCGsteps         0           # 0 for single-point / 100 for gopt
#MD.MaxCGDispl         0.2 Bohr      # Default: 0.2 Bohr
#MD.MaxForceTol        0.02 eV/Ang   # Default: 0.04 eV/Ang
#MD.MaxStressTol       1.0 GPa       # Default: 1.0 GPa
# Geometry Constraints
#%block GeometryConstraints
#	position from 1 to 44
#%endblock GeometryConstraints
BandLinesScale   pi/a
%block BandLines
 1   0.00000000  0.00000000  0.00000000
50   0.00000000  0.07809418  0.00000000
50   0.04509075  0.07809242  0.00000000
20   0.00000000  0.00000000  0.00000000
%endblock BandLines
************************** End of input data file *****************************

reinit: -----------------------------------------------------------------------
reinit: System Name: GRP_doping
reinit: -----------------------------------------------------------------------
reinit: System Label: GRP_doping                                                  
reinit: -----------------------------------------------------------------------

initatom: Reading input for the pseudopotentials and atomic orbitals ----------
 Species number:            1  Label: N Atomic number:           7
 Species number:            2  Label: C Atomic number:           6
Ground state valence configuration:   2s02  2p03
Reading pseudopotential information in formatted form from N.psf

Valence configuration for pseudopotential generation:
2s( 2.00) rc: 1.48
2p( 3.00) rc: 1.48
3d( 0.00) rc: 1.48
4f( 0.00) rc: 1.48
Ground state valence configuration:   2s02  2p02
Reading pseudopotential information in formatted form from C.psf

Valence configuration for pseudopotential generation:
2s( 2.00) rc: 1.54
2p( 2.00) rc: 1.54
3d( 0.00) rc: 1.54
4f( 0.00) rc: 1.54
For N, standard SIESTA heuristics set lmxkb to 3
 (one more than the basis l, including polarization orbitals).
Use PS.lmax or PS.KBprojectors blocks to override.
For C, standard SIESTA heuristics set lmxkb to 3
 (one more than the basis l, including polarization orbitals).
Use PS.lmax or PS.KBprojectors blocks to override.

<basis_specs>
===============================================================================
N                    Z=   7    Mass=  14.010        Charge= 0.17977+309
Lmxo=1 Lmxkb= 3    BasisType=split      Semic=F
L=0  Nsemic=0  Cnfigmx=2
          n=1  nzeta=2  polorb=0
            splnorm:   0.15000    
               vcte:    0.0000    
               rinn:    0.0000    
                rcs:    0.0000      0.0000    
            lambdas:    1.0000      1.0000    
L=1  Nsemic=0  Cnfigmx=2
          n=1  nzeta=2  polorb=1
            splnorm:   0.15000    
               vcte:    0.0000    
               rinn:    0.0000    
                rcs:    0.0000      0.0000    
            lambdas:    1.0000      1.0000    
-------------------------------------------------------------------------------
L=0  Nkbl=1  erefs: 0.17977+309
L=1  Nkbl=1  erefs: 0.17977+309
L=2  Nkbl=1  erefs: 0.17977+309
L=3  Nkbl=1  erefs: 0.17977+309
===============================================================================
</basis_specs>

atom: Called for N                     (Z =   7)

read_vps: Pseudopotential generation method:
read_vps: ATM3      Troullier-Martins                       
Total valence charge:    5.00000

read_vps: Pseudopotential includes a core correction:
read_vps: Pseudo-core for xc-correction

xc_check: Exchange-correlation functional:
xc_check: GGA Perdew, Burke & Ernzerhof 1996
V l=0 = -2*Zval/r beyond r=  1.4606
V l=1 = -2*Zval/r beyond r=  1.4606
V l=2 = -2*Zval/r beyond r=  1.4606
V l=3 = -2*Zval/r beyond r=  1.4606
All V_l potentials equal beyond r=  1.4606
This should be close to max(r_c) in ps generation
All pots = -2*Zval/r beyond r=  1.4606

VLOCAL1: 99.0% of the norm of Vloc inside     20.347 Ry
VLOCAL1: 99.9% of the norm of Vloc inside     46.372 Ry
atom: Maximum radius for 4*pi*r*r*local-pseudopot. charge    1.76189
atom: Maximum radius for r*vlocal+2*Zval:    1.53550
GHOST: No ghost state for L =  0
GHOST: No ghost state for L =  1
GHOST: No ghost state for L =  2
GHOST: No ghost state for L =  3

KBgen: Kleinman-Bylander projectors: 
   l= 0   rc=  1.634559   el= -1.363963   Ekb=  5.296955   kbcos=  0.335621
   l= 1   rc=  1.614250   el= -0.521451   Ekb= -5.259161   kbcos= -0.433408
   l= 2   rc=  1.718383   el=  0.001991   Ekb= -1.271464   kbcos= -0.007566
   l= 3   rc=  1.761893   el=  0.003093   Ekb= -0.494769   kbcos= -0.001015

KBgen: Total number of  Kleinman-Bylander projectors:   16
atom: -------------------------------------------------------------------------

atom: SANKEY-TYPE ORBITALS:
atom: Selected multiple-zeta basis: split     

SPLIT: Orbitals with angular momentum L= 0

SPLIT: Basis orbitals for state 2s

SPLIT: PAO cut-off radius determined from an
SPLIT: energy shift=  0.007350 Ry

   izeta = 1
                 lambda =    1.000000
                     rc =    4.071465
                 energy =   -1.356470
                kinetic =    1.176977
    potential(screened) =   -2.533447
       potential(ionic) =   -8.057990

   izeta = 2
                 rmatch =    2.905100
              splitnorm =    0.150000
                 energy =   -1.158343
                kinetic =    1.813009
    potential(screened) =   -2.971352
       potential(ionic) =   -8.901931

SPLIT: Orbitals with angular momentum L= 1

SPLIT: Basis orbitals for state 2p

SPLIT: PAO cut-off radius determined from an
SPLIT: energy shift=  0.007350 Ry

   izeta = 1
                 lambda =    1.000000
                     rc =    4.972977
                 energy =   -0.513884
                kinetic =    3.441732
    potential(screened) =   -3.955616
       potential(ionic) =   -9.287901

   izeta = 2
                 rmatch =    3.054066
              splitnorm =    0.150000
                 energy =   -0.318226
                kinetic =    5.125348
    potential(screened) =   -5.443573
       potential(ionic) =  -11.380999

POLgen: Perturbative polarization orbital with L=  2

POLgen: Polarization orbital for state 2p

   izeta = 1
                     rc =    4.972977
                 energy =    1.607437
                kinetic =    3.268125
    potential(screened) =   -1.660688
       potential(ionic) =   -5.973652
atom: Total number of Sankey-type orbitals: 13

atm_pop: Valence configuration (for local Pseudopot. screening):
 2s( 2.00)                                                            
 2p( 3.00)                                                            
Vna: chval, zval:    5.00000   5.00000

Vna:  Cut-off radius for the neutral-atom potential:   4.972977
comcore: Pseudo-core radius Rcore=  1.554824

atom: _________________________________________________________________________

<basis_specs>
===============================================================================
C                    Z=   6    Mass=  12.010        Charge= 0.17977+309
Lmxo=1 Lmxkb= 3    BasisType=split      Semic=F
L=0  Nsemic=0  Cnfigmx=2
          n=1  nzeta=2  polorb=0
            splnorm:   0.15000    
               vcte:    0.0000    
               rinn:    0.0000    
                rcs:    0.0000      0.0000    
            lambdas:    1.0000      1.0000    
L=1  Nsemic=0  Cnfigmx=2
          n=1  nzeta=2  polorb=1
            splnorm:   0.15000    
               vcte:    0.0000    
               rinn:    0.0000    
                rcs:    0.0000      0.0000    
            lambdas:    1.0000      1.0000    
-------------------------------------------------------------------------------
L=0  Nkbl=1  erefs: 0.17977+309
L=1  Nkbl=1  erefs: 0.17977+309
L=2  Nkbl=1  erefs: 0.17977+309
L=3  Nkbl=1  erefs: 0.17977+309
===============================================================================
</basis_specs>

atom: Called for C                     (Z =   6)

read_vps: Pseudopotential generation method:
read_vps: ATM3      Troullier-Martins                       
Total valence charge:    4.00000

read_vps: Pseudopotential includes a core correction:
read_vps: Pseudo-core for xc-correction

xc_check: Exchange-correlation functional:
xc_check: GGA Perdew, Burke & Ernzerhof 1996
V l=0 = -2*Zval/r beyond r=  1.5227
V l=1 = -2*Zval/r beyond r=  1.5227
V l=2 = -2*Zval/r beyond r=  1.5227
V l=3 = -2*Zval/r beyond r=  1.5038
All V_l potentials equal beyond r=  1.5227
This should be close to max(r_c) in ps generation
All pots = -2*Zval/r beyond r=  1.5227

VLOCAL1: 99.0% of the norm of Vloc inside     18.722 Ry
VLOCAL1: 99.9% of the norm of Vloc inside     42.668 Ry
atom: Maximum radius for 4*pi*r*r*local-pseudopot. charge    1.83678
atom: Maximum radius for r*vlocal+2*Zval:    1.58088
GHOST: No ghost state for L =  0
GHOST: No ghost state for L =  1
GHOST: No ghost state for L =  2
GHOST: No ghost state for L =  3

KBgen: Kleinman-Bylander projectors: 
   l= 0   rc=  1.704034   el= -1.009801   Ekb=  5.335044   kbcos=  0.316824
   l= 1   rc=  1.704034   el= -0.388707   Ekb= -3.785862   kbcos= -0.366464
   l= 2   rc=  1.791422   el=  0.001971   Ekb= -0.970471   kbcos= -0.009212
   l= 3   rc=  1.859892   el=  0.003065   Ekb= -0.399525   kbcos= -0.001223

KBgen: Total number of  Kleinman-Bylander projectors:   16
atom: -------------------------------------------------------------------------

atom: SANKEY-TYPE ORBITALS:
atom: Selected multiple-zeta basis: split     

SPLIT: Orbitals with angular momentum L= 0

SPLIT: Basis orbitals for state 2s

SPLIT: PAO cut-off radius determined from an
SPLIT: energy shift=  0.007350 Ry

   izeta = 1
                 lambda =    1.000000
                     rc =    4.632753
                 energy =   -1.002270
                kinetic =    0.855760
    potential(screened) =   -1.858031
       potential(ionic) =   -5.417575

   izeta = 2
                 rmatch =    3.431921
              splitnorm =    0.150000
                 energy =   -0.867111
                kinetic =    1.300804
    potential(screened) =   -2.167915
       potential(ionic) =   -5.962684

SPLIT: Orbitals with angular momentum L= 1

SPLIT: Basis orbitals for state 2p

SPLIT: PAO cut-off radius determined from an
SPLIT: energy shift=  0.007350 Ry

   izeta = 1
                 lambda =    1.000000
                     rc =    5.658549
                 energy =   -0.381140
                kinetic =    2.399701
    potential(screened) =   -2.780841
       potential(ionic) =   -6.206085

   izeta = 2
                 rmatch =    3.653288
              splitnorm =    0.150000
                 energy =   -0.249149
                kinetic =    3.542762
    potential(screened) =   -3.791911
       potential(ionic) =   -7.581078

POLgen: Perturbative polarization orbital with L=  2

POLgen: Polarization orbital for state 2p

   izeta = 1
                     rc =    5.658549
                 energy =    1.109913
                kinetic =    2.304789
    potential(screened) =   -1.194876
       potential(ionic) =   -4.013592
atom: Total number of Sankey-type orbitals: 13

atm_pop: Valence configuration (for local Pseudopot. screening):
 2s( 2.00)                                                            
 2p( 2.00)                                                            
Vna: chval, zval:    4.00000   4.00000

Vna:  Cut-off radius for the neutral-atom potential:   5.658549
comcore: Pseudo-core radius Rcore=  1.791422

atom: _________________________________________________________________________

prinput: Basis input ----------------------------------------------------------

PAO.BasisType split     

%block ChemicalSpeciesLabel
    1    7 N                       # Species index, atomic number, species label
    2    6 C                       # Species index, atomic number, species label
%endblock ChemicalSpeciesLabel

%block PAO.Basis                 # Define Basis set
N                     2                    # Species label, number of l-shells
 n=2   0   2                         # n, l, Nzeta 
   4.071      2.905   
   1.000      1.000   
 n=2   1   2 P   1                   # n, l, Nzeta, Polarization, NzetaPol
   4.973      3.054   
   1.000      1.000   
C                     2                    # Species label, number of l-shells
 n=2   0   2                         # n, l, Nzeta 
   4.633      3.432   
   1.000      1.000   
 n=2   1   2 P   1                   # n, l, Nzeta, Polarization, NzetaPol
   5.659      3.653   
   1.000      1.000   
%endblock PAO.Basis

prinput: ----------------------------------------------------------------------

coor:   Atomic-coordinates input format  =     Fractional

siesta: Atomic coordinates (Bohr) and species
siesta:      4.63094  34.85847   0.00000  1        1
siesta:      6.95932  30.82560   0.00000  1        2
siesta:      6.95932  33.51406   0.00000  1        3
siesta:     -0.02582  18.72698   0.00000  1        4
siesta:     -0.02582  21.41544   0.00000  1        5
siesta:      2.30256  22.75985   0.00000  1        6
siesta:      2.30256  25.44831   0.00000  1        7
siesta:     -4.68258  21.41544   0.00000  1        8
siesta:     -2.35420  22.75985   0.00000  1        9
siesta:     -2.35420  25.44831   0.00000  1       10
siesta:     -9.33934  21.41544   0.00000  1       11
siesta:     -7.01096  22.75985   0.00000  1       12
siesta:    -11.66772  22.75985   0.00000  1       13
siesta:      4.63094  26.79272   0.00000  1       14
siesta:      4.63094  29.48119   0.00000  1       15
siesta:     -0.02582  26.79272   0.00000  1       16
siesta:     -0.02582  29.48119   0.00000  1       17
siesta:      2.30256  30.82560   0.00000  1       18
siesta:      2.30256  33.51406   0.00000  1       19
siesta:     -0.02582   2.59549   0.00000  2       20
siesta:     -0.02582   5.28395   0.00000  2       21
siesta:     -2.35420  38.89134   0.00000  2       22
siesta:     -2.35420  41.57980   0.00000  2       23
siesta:      2.30256  38.89134   0.00000  2       24
siesta:      2.30256  41.57980   0.00000  2       25
siesta:      4.63094  37.54693   0.00000  2       26
siesta:      9.28770  26.79272   0.00000  2       27
siesta:      9.28770  29.48119   0.00000  2       28
siesta:     -4.68258  34.85847   0.00000  2       29
siesta:     -4.68258  37.54693   0.00000  2       30
siesta:      2.30256   6.62836   0.00000  2       31
siesta:      2.30256   9.31683   0.00000  2       32
siesta:      4.63094  10.66124   0.00000  2       33
siesta:      4.63094  13.34970   0.00000  2       34
siesta:      6.95932  14.69411   0.00000  2       35
siesta:      6.95932  17.38257   0.00000  2       36
siesta:      9.28770  18.72698   0.00000  2       37
siesta:      9.28770  21.41544   0.00000  2       38
siesta:     11.61608  22.75985   0.00000  2       39
siesta:     11.61608  25.44831   0.00000  2       40
siesta:     -2.35420   6.62836   0.00000  2       41
siesta:     -2.35420   9.31683   0.00000  2       42
siesta:     -0.02582  10.66124   0.00000  2       43
siesta:     -0.02582  13.34970   0.00000  2       44
siesta:      2.30256  14.69411   0.00000  2       45
siesta:      2.30256  17.38257   0.00000  2       46
siesta:      4.63094  18.72698   0.00000  2       47
siesta:      4.63094  21.41544   0.00000  2       48
siesta:      6.95932  22.75985   0.00000  2       49
siesta:      6.95932  25.44831   0.00000  2       50
siesta:     -4.68258  10.66124   0.00000  2       51
siesta:     -4.68258  13.34970   0.00000  2       52
siesta:     -2.35420  14.69411   0.00000  2       53
siesta:     -2.35420  17.38257   0.00000  2       54
siesta:     -7.01096  14.69411   0.00000  2       55
siesta:     -7.01096  17.38257   0.00000  2       56
siesta:     -4.68258  18.72698   0.00000  2       57
siesta:     -9.33934  18.72698   0.00000  2       58
siesta:     -7.01096  25.44831   0.00000  2       59
siesta:    -11.66772  25.44831   0.00000  2       60
siesta:     -9.33934  26.79272   0.00000  2       61
siesta:     -9.33934  29.48119   0.00000  2       62
siesta:     -4.68258  26.79272   0.00000  2       63
siesta:     -4.68258  29.48119   0.00000  2       64
siesta:     -2.35420  30.82560   0.00000  2       65
siesta:     -2.35420  33.51406   0.00000  2       66
siesta:     -7.01096  30.82560   0.00000  2       67
siesta:     -7.01096  33.51406   0.00000  2       68
siesta:     -0.02582  34.85847   0.00000  2       69
siesta:     -0.02582  37.54693   0.00000  2       70
siesta:     -0.02582  42.92421   0.00000  2       71
siesta:     -0.02582  45.61267   0.00000  2       72

siesta: System type = slab      

initatomlists: Number of atoms, orbitals, and projectors:     72   936  1152

siesta: ******************** Simulation parameters ****************************
siesta:
siesta: The following are some of the parameters of the simulation.
siesta: A complete list of the parameters used, including default values,
siesta: can be found in file out.fdf
siesta:
redata: Non-Collinear-spin run           =     F
redata: SpinPolarized (Up/Down) run      =     F
redata: Number of spin components        =     1
redata: Long output                      =     F
redata: Number of Atomic Species         =        2
redata: Charge density info will appear in .RHO file
redata: Write Mulliken Pop.              =     NO
redata: Mesh Cutoff                      =   200.0000  Ry
redata: Net charge of the system         =     0.0000 |e|
redata: Max. number of SCF Iter          =      500
redata: SCF convergence failure will abort job
redata: Performing Pulay mixing using    =    10 iterations
redata: Mix DM in first SCF step ?       =     F
redata: Write Pulay info on disk?        =     F
redata: Discard 1st Pulay DM after  kick =     F
redata: New DM Mixing Weight             =     0.0500
redata: New DM Occupancy tolerance       = 0.000000000001
redata: No kicks to SCF
redata: DM Mixing Weight for Kicks       =     0.5000
redata: DM Tolerance for SCF             =     0.000100
redata: Require Energy convergence for SCF =     F
redata: DM Energy tolerance for SCF      =     0.000100 eV
redata: Require Harris convergence for SCF =     F
redata: DM Harris energy tolerance for SCF =     0.000100 eV
redata: Using Saved Data (generic)   =     F
redata: Use continuation files for DM    =     T
redata: Neglect nonoverlap interactions  =     F
redata: Method of Calculation            =     Diagonalization
redata: Divide and Conquer               =     T
redata: Electronic Temperature           =     0.0019  Ry
redata: Fix the spin of the system       =     F
redata: Dynamics option                  =     Verlet MD run
redata: Initial MD time step             =        1
redata:   Final MD time step             =        1
redata: Length of MD time step           =     1.0000  fs
redata: Initial Temperature of MD run    =     0.0000  K
redata: Perform a MD quench              =     F
redata: ***********************************************************************
Total number of electrons:   307.000000
Total ionic charge:   307.000000

* ProcessorY, Blocksize:    2  24

k-point displ. along   1 input, could be:     0.50    0.00
k-point displ. along   2 input, could be:     0.50    0.00
 Kpoints in:          231 . Kpoints trimmed:          231

siesta: k-grid: Number of k-points =   231
siesta: k-grid: Cutoff (effective) =     5.000 Ang
siesta: k-grid: Supercell and displacements
siesta: k-grid:   21   0   0      0.500
siesta: k-grid:    0  21   0      0.500
siesta: k-grid:    0   0   1      0.000
Naive supercell factors:     2    2    2

superc: Internal auxiliary supercell:     2 x     2 x     2  =       8
superc: Number of atoms, orbitals, and projectors:    576   7488   9216

* Maximum dynamic memory allocated =     4 MB

siesta:                 ==============================
                            Begin MD step =      1
                        ==============================

superc: Internal auxiliary supercell:     2 x     2 x     2  =       8
superc: Number of atoms, orbitals, and projectors:    576   7488   9216

outcell: Unit cell vectors (Ang):
       12.804619    7.392750    0.000000
        0.000000   14.785500    0.000000
        0.000000    0.000000   10.000000

outcell: Cell vector modules (Ang)   :   14.785500   14.785500   10.000000
outcell: Cell angles (23,13,12) (deg):     90.0000     90.0000     60.0000
outcell: Cell volume (Ang**3)        :   1893.2269
New_DM. Step:     1
Initializing Density Matrix...

InitMesh: MESH =   120 x   120 x    90 =     1296000
InitMesh: Mesh cutoff (required, used) =   200.000   223.865 Ry

* Maximum dynamic memory allocated =   187 MB

stepf: Fermi-Dirac step function

siesta: Program's energy decomposition (eV):
siesta: Ebs     =     -6218.995840
siesta: Eions   =     21457.201110
siesta: Ena     =      4920.011594
siesta: Ekin    =      7972.707975
siesta: Enl     =        96.031969
siesta: DEna    =        -0.000015
siesta: DUscf   =         0.000000
siesta: DUext   =         0.000000
siesta: Exc     =     -4641.651061
siesta: eta*DQ  =         0.000000
siesta: Emadel  =         0.000000
siesta: Emeta   =         0.000000
siesta: Emolmec =         0.000000
siesta: Ekinion =         0.000000
siesta: Eharris =    -12765.979641
siesta: Etot    =    -13110.100648
siesta: FreeEng =    -13110.100648

siesta: iscf   Eharris(eV)      E_KS(eV)   FreeEng(eV)   dDmax  Ef(eV)
siesta:    1   -12765.9796   -13110.1006   -13110.1006  5.7236 -6.8631
timer: Routine,Calls,Time,% = IterSCF        1    3386.509  99.70
elaps: Routine,Calls,Wall,% = IterSCF        1     424.135  99.70
siesta:    2   -19827.0889   -11816.2276   -11816.2886 12.8661 -8.4452
siesta:    3   -12747.5888   -12909.5806   -12909.6261  2.0788 -5.1622
siesta:    4   -12667.8108   -12796.5345   -12796.5880  1.2417 -4.5572
siesta:    5   -12623.2645   -12702.3860   -12702.4683  0.9356 -4.1798
siesta:    6   -12607.8734   -12656.5231   -12656.5635  0.8183 -3.9633
siesta:    7   -12593.1308   -12640.5145   -12640.5616  0.6942 -3.9222
siesta:    8   -12589.3723   -12629.3365   -12629.3904  0.6544 -3.9070
siesta:    9   -12585.3899   -12610.1407   -12610.2217  0.6579 -3.8410
siesta:   10   -12584.6626   -12603.9095   -12603.9748  0.4871 -3.8387
siesta:   11   -12584.9007   -12590.8937   -12590.9710  0.3925 -3.8587
siesta:   12   -12584.9674   -12581.1957   -12581.2604  0.4345 -3.8517
siesta:   13   -12584.4707   -12574.6357   -12574.6984  0.2440 -3.8406
siesta:   14   -12584.0454   -12576.5144   -12576.5622  0.2967 -3.8412
siesta:   15   -12583.5492   -12577.4073   -12577.4628  0.2187 -3.8145
siesta:   16   -12583.2639   -12580.5250   -12580.5836  0.1693 -3.8307
siesta:   17   -12583.0551   -12582.4137   -12582.4801  0.1239 -3.8296
siesta:   18   -12582.9877   -12583.7414   -12583.8039  0.1134 -3.8290
siesta:   19   -12582.9539   -12583.5949   -12583.6619  0.0944 -3.8310
siesta:   20   -12582.9365   -12584.0163   -12584.0831  0.0859 -3.8169
siesta:   21   -12582.9281   -12584.2422   -12584.3088  0.0622 -3.8091
siesta:   22   -12582.9211   -12584.2983   -12584.3672  0.0366 -3.8008
siesta:   23   -12582.9148   -12584.1432   -12584.2106  0.0256 -3.7966
siesta:   24   -12582.9127   -12583.6998   -12583.7686  0.0173 -3.7967
siesta:   25   -12582.9109   -12583.4386   -12583.5064  0.0131 -3.7958
siesta:   26   -12582.9107   -12583.3496   -12583.4183  0.0083 -3.7949
siesta:   27   -12582.9102   -12583.2090   -12583.2778  0.0036 -3.7966
siesta:   28   -12582.9102   -12583.1148   -12583.1836  0.0030 -3.7969
siesta:   29   -12582.9101   -12583.0814   -12583.1502  0.0018 -3.7975
siesta:   30   -12582.9101   -12583.0788   -12583.1475  0.0013 -3.7978
siesta:   31   -12582.9101   -12583.0515   -12583.1202  0.0011 -3.7983
siesta:   32   -12582.9101   -12583.0292   -12583.0979  0.0006 -3.7982
siesta:   33   -12582.9101   -12583.0120   -12583.0806  0.0005 -3.7981
siesta:   34   -12582.9100   -12582.9724   -12583.0411  0.0004 -3.7979
siesta:   35   -12582.9101   -12582.9436   -12583.0123  0.0005 -3.7978
siesta:   36   -12582.9100   -12582.9421   -12583.0108  0.0001 -3.7978
siesta:   37   -12582.9101   -12582.9335   -12583.0022  0.0002 -3.7977
siesta:   38   -12582.9101   -12582.9193   -12582.9880  0.0001 -3.7977

siesta: E_KS(eV) =           -12582.9169

siesta: E_KS - E_eggbox =    -12582.9169

siesta: Atomic forces (eV/Ang):
----------------------------------------
   Tot    0.035338   -0.120949    0.000000
----------------------------------------
   Max  686.279424
   Res  172.611000    sqrt( Sum f_i^2 / 3N )
----------------------------------------
   Max  686.279424    constrained

Stress-tensor-Voigt (kbar):     -727.61    -3040.70       -0.07      -28.34        0.00        0.00
(Free)E + p*V (eV/cell)   -11098.6927
Target enthalpy (eV/cell)   -12582.9856

siesta: Stress tensor (static) (eV/Ang**3):
        -0.454132   -0.017690    0.000000
        -0.017690   -1.897832    0.000000
         0.000000    0.000000   -0.000041

siesta: Pressure (static):       1256.12260301  kBar

siesta: Stress tensor (total) (eV/Ang**3):
        -0.454132   -0.017690    0.000000
        -0.017690   -1.897832    0.000000
         0.000000    0.000000   -0.000041

siesta: Pressure (total):       1256.12260301  kBar

siesta: Temp_ion =       0.000 K

* Maximum dynamic memory allocated =   203 MB
Computing bands...

siesta: Program's energy decomposition (eV):
siesta: Ebs     =     -5004.357114
siesta: Eions   =     21457.201110
siesta: Ena     =      4920.011594
siesta: Ekin    =     11000.699888
siesta: Enl     =     -1562.864024
siesta: DEna    =      -781.886845
siesta: DUscf   =       110.402744
siesta: DUext   =         0.000000
siesta: Exc     =     -4812.079150
siesta: eta*DQ  =         0.000000
siesta: Emadel  =         0.000000
siesta: Emeta   =         0.000000
siesta: Emolmec =         0.000000
siesta: Ekinion =         0.000000
siesta: Eharris =    -12582.910053
siesta: Etot    =    -12582.916904
siesta: FreeEng =    -12582.985614

siesta: Final energy (eV):
siesta:  Band Struct. =   -5004.357114
siesta:       Kinetic =   11000.699888
siesta:       Hartree =   35254.936262
siesta:    Ext. field =       0.000000
siesta:   Exch.-corr. =   -4812.079150
siesta:  Ion-electron =  -81044.487888
siesta:       Ion-ion =   27018.013984
siesta:       Ekinion =       0.000000
siesta:         Total =  -12582.916904

siesta: Atomic forces (eV/Ang):
siesta:      1   30.000492   12.964792    0.000000
siesta:      2    4.144967    0.773459    0.000000
siesta:      3    0.488959   -3.207115    0.000000
siesta:      4   -2.142712  681.242643    0.000000
siesta:      5    1.191814   -3.224039    0.000000
siesta:      6    0.487945   -0.835944    0.000000
siesta:      7    1.724935    2.014476    0.000000
siesta:      8   -0.410001   -2.317952    0.000000
siesta:      9   -2.202344   -0.105903    0.000000
siesta:     10   -0.515045   -0.429345    0.000000
siesta:     11   -0.186782   -4.660682    0.000000
siesta:     12    0.829886    2.903400    0.000000
siesta:     13    0.371501    4.346481    0.000000
siesta:     14    0.667145    0.220889    0.000000
siesta:     15    0.624405   -1.882068    0.000000
siesta:     16   -1.048538    5.698712    0.000000
siesta:     17  -12.460791 -686.279424    0.000000
siesta:     18   33.266342   11.186326    0.000000
siesta:     19   -5.995591 -678.418481    0.000000
siesta:     20    5.848811  643.077020    0.000000
siesta:     21    4.208111 -120.293014    0.000000
siesta:     22    1.768196  128.569497    0.000000
siesta:     23  -17.110427 -548.901998    0.000000
siesta:     24    0.198630  126.934949    0.000000
siesta:     25   16.958021 -548.666667    0.000000
siesta:     26   23.191083 -550.147713    0.000000
siesta:     27    0.573227    1.942528    0.000000
siesta:     28   -1.899178    2.654524    0.000000
siesta:     29  -26.556041    5.671065    0.000000
siesta:     30  -33.048954 -550.053511    0.000000
siesta:     31   34.051427  653.405841    0.000000
siesta:     32    1.846118 -117.167368    0.000000
siesta:     33   35.166710  552.075844    0.000000
siesta:     34   26.550252   -5.434420    0.000000
siesta:     35   -2.940148   -1.359994    0.000000
siesta:     36    3.015495   -0.020242    0.000000
siesta:     37   -1.275073   -0.643487    0.000000
siesta:     38    1.778966   -1.568117    0.000000
siesta:     39   -0.199402    6.781441    0.000000
siesta:     40   -0.207568   -6.248847    0.000000
siesta:     41  -14.509489  549.146123    0.000000
siesta:     42    1.231531 -127.745108    0.000000
siesta:     43   -2.752220  545.381631    0.000000
siesta:     44   -0.318499 -127.245915    0.000000
siesta:     45   20.816890  558.898630    0.000000
siesta:     46   25.798143   -9.559583    0.000000
siesta:     47   -1.598144    3.759814    0.000000
siesta:     48   -0.262063   -1.101805    0.000000
siesta:     49   -1.102128    0.989089    0.000000
siesta:     50   -0.706008   -0.443304    0.000000
siesta:     51  -34.316511  550.154088    0.000000
siesta:     52  -26.138806   -6.959550    0.000000
siesta:     53  -18.061263  557.490709    0.000000
siesta:     54  -26.693879   -7.592944    0.000000
siesta:     55    2.363666   -0.713420    0.000000
siesta:     56   -0.809089   -0.053630    0.000000
siesta:     57    1.355538    3.254775    0.000000
siesta:     58   -1.213331    3.203835    0.000000
siesta:     59    0.841457   -1.274892    0.000000
siesta:     60   -0.980887   -5.938699    0.000000
siesta:     61   -0.411139    1.827829    0.000000
siesta:     62    0.926093   -0.283685    0.000000
siesta:     63   -0.162300   -0.218216    0.000000
siesta:     64    1.670060   -2.871578    0.000000
siesta:     65  -25.168463   10.068919    0.000000
siesta:     66  -22.068823 -555.763057    0.000000
siesta:     67   -1.725500    0.308913    0.000000
siesta:     68    2.604342    1.572699    0.000000
siesta:     69   -1.567018  128.555856    0.000000
siesta:     70    2.262908 -547.315141    0.000000
siesta:     71   -0.548304  115.060742    0.000000
siesta:     72    0.523733 -645.311629    0.000000
siesta: ----------------------------------------
siesta:    Tot    0.035338   -0.120949    0.000000

siesta: Stress tensor (static) (eV/Ang**3):
siesta:    -0.454132   -0.017690    0.000000
siesta:    -0.017690   -1.897832    0.000000
siesta:     0.000000    0.000000   -0.000041

siesta: Cell volume =       1893.226884 Ang**3

siesta: Pressure (static):
siesta:                Solid            Molecule  Units
siesta:           0.00853878          0.13524861  Ry/Bohr**3
siesta:           0.78400159         12.41806703  eV/Ang**3
siesta:        1256.12260301      19896.15188909  kBar
(Free)E+ p_basis*V_orbitals  =      -12554.964304
(Free)Eharris+ p_basis*V_orbitals  =      -12554.955016

siesta: Electric dipole (a.u.)  =    0.000000    0.000000    0.000000
siesta: Electric dipole (Debye) =    0.000000    0.000000    0.000000

* Maximum dynamic memory allocated : Node    0 =   203 MB
* Maximum dynamic memory allocated : Node    1 =    72 MB
* Maximum dynamic memory allocated : Node    2 =    74 MB
* Maximum dynamic memory allocated : Node    3 =   193 MB
* Maximum dynamic memory allocated : Node    4 =   184 MB
* Maximum dynamic memory allocated : Node    5 =    70 MB
* Maximum dynamic memory allocated : Node    6 =    71 MB
* Maximum dynamic memory allocated : Node    7 =   170 MB

* Maximum memory occured during matrixMtoO                    

timer: CPU execution times:
timer:  Routine       Calls   Time/call    Tot.time        %
timer:  siesta            1  127788.073  127788.073   100.00
timer:  Setup             1       2.701       2.701     0.00
timer:  bands             3     243.713     731.139     0.57
timer:  writewave         1       0.023       0.023     0.00
timer:  KSV_init          1       0.000       0.000     0.00
timer:  IterMD            1  127048.964  127048.964    99.42
timer:  hsparse           1       0.281       0.281     0.00
timer:  overlap           1       7.124       7.124     0.01
timer:  IterSCF          38    3339.353  126895.420    99.30
timer:  kinefsm           2       3.676       7.352     0.01
timer:  nlefsm            2      17.435      34.870     0.03
timer:  DHSCF            39      76.689    2990.860     2.34
timer:  DHSCF1            1       0.743       0.743     0.00
timer:  DHSCF2            1      31.085      31.085     0.02
timer:  REORD           314       0.005       1.514     0.00
timer:  POISON           40       0.863      34.538     0.03
timer:  DHSCF3           39      75.126    2929.910     2.29
timer:  rhoofd           39      15.568     607.160     0.48
timer:  cellXC           39       3.306     128.949     0.10
timer:  vmat             39      34.980    1364.224     1.07
timer:  MolMec            2       0.000       0.000     0.00
timer:  diagon           38    3261.900  123952.217    97.00
timer:  c-eigval       8899       6.018   53553.593    41.91
timer:  c-buildHS      8899       0.046     413.410     0.32
timer:  cdiag         17677       6.158  108854.272    85.18
timer:  cdiag1        17677       0.385    6797.141     5.32
timer:  cdiag2        17677       1.767   31232.747    24.44
timer:  cdiag3        17677       3.726   65868.783    51.55
timer:  cdiag4        17677       0.153    2696.480     2.11
timer:  c-eigvec       8778       6.385   56051.512    43.86
timer:  c-buildD       8778       1.713   15033.168    11.76
timer:  DHSCF4            1      28.345      28.345     0.02
timer:  dfscf             1      26.479      26.479     0.02
timer:  overfsm           1       0.381       0.381     0.00
timer:  optical           1       4.594       4.594     0.00
  

elaps: ELAPSED times:
elaps:  Routine       Calls   Time/call    Tot.time        %
elaps:  siesta            1   16003.507   16003.507   100.00
elaps:  Setup             1       0.339       0.339     0.00
elaps:  bands             3      30.539      91.616     0.57
elaps:  writewave         1       0.002       0.002     0.00
elaps:  KSV_init          1       0.000       0.000     0.00
elaps:  IterMD            1   15910.944   15910.944    99.42
elaps:  hsparse           1       0.036       0.036     0.00
elaps:  overlap           1       0.891       0.891     0.01
elaps:  IterSCF          38     418.203   15891.721    99.30
elaps:  kinefsm           2       0.460       0.919     0.01
elaps:  nlefsm            2       2.166       4.332     0.03
elaps:  DHSCF            39       9.706     378.550     2.37
elaps:  DHSCF1            1       0.095       0.095     0.00
elaps:  DHSCF2            1       3.892       3.892     0.02
elaps:  REORD           314       0.001       0.208     0.00
elaps:  POISON           40       0.109       4.344     0.03
elaps:  DHSCF3           39       9.409     366.958     2.29
elaps:  rhoofd           39       4.482     174.814     1.09
elaps:  cellXC           39       0.414      16.141     0.10
elaps:  vmat             39       4.381     170.871     1.07
elaps:  MolMec            2       0.000       0.000     0.00
elaps:  diagon           38     408.511   15523.406    97.00
elaps:  c-eigval       8899       0.754    6706.701    41.91
elaps:  c-buildHS      8899       0.006      56.368     0.35
elaps:  cdiag         17677       0.767   13549.612    84.67
elaps:  cdiag1        17677       0.048     850.259     5.31
elaps:  cdiag2        17677       0.221    3912.355    24.45
elaps:  cdiag3        17677       0.467    8260.009    51.61
elaps:  cdiag4        17677       0.019     332.615     2.08
elaps:  c-eigvec       8778       0.791    6946.439    43.41
elaps:  c-buildD       8778       0.223    1955.678    12.22
elaps:  DHSCF4            1       7.510       7.510     0.05
elaps:  dfscf             1       7.104       7.104     0.04
elaps:  overfsm           1       0.048       0.048     0.00
elaps:  optical           1       0.000       0.000     0.00
  
>> End of run:   1-MAY-2016   7:52:15
