Siesta Version:                                        siesta-3.2-pl-3
Architecture  : x86_64-unknown-linux-gnu--unknown
Compiler flags: mpiifort -g -O2 -fPIC -xSSE4.1 -fp-model source -shared-intel 
PARALLEL version

* Running on    8 nodes in parallel
>> Start of run:  27-APR-2016   7:48:09

                           ***********************       
                           *  WELCOME TO SIESTA  *       
                           ***********************       

reinit: Reading from standard input
************************** Dump of input data file ****************************
#(1) General system descriptors
SystemName            GRP_doping    # Descriptive name of the system
SystemLabel           GRP_doping    # Short name for naming files
%include STRUCT.fdf
%include KPT.fdf
%include BASIS.fdf
#%include TS.fdf # for transiesta calculation
#(4) DFT, Grid, SCF
XC.functional         GGA           # LDA or GGA (default = LDA)
XC.authors            PBE           # CA (Ceperley-Aldr) = PZ
                                    #    (Perdew-Zunger) - LDA - Default
                                    # PW92 (Perdew-Wang-92) - LDA
                                    # PBE (Perdew-Burke-Ernzerhof) - GGA
MeshCutoff            200.000000    Ry      # Default: 50.0 Ry ~ 0.444 Bohr
                                    #         100.0 Ry ~ 0.314 Bohr
MaxSCFIterations      500           # Default: 50
DM.MixingWeight       0.05          # Default: 0.25
DM.NumberPulay        10            # Default: 0
DM.PulayOnFile        F             # SystemLabel.P1, SystemLabel.P2
DM.Tolerance          1.d-4         # Default: 1.d-4
DM.UseSaveDM          .true.        # because of the bug
SCFMustConverge       .true.
NeglNonOverlapInt     F             # Default: F
#(5) Eigenvalue problem: order-N or diagonalization
SolutionMethod        Diagon        # or Transiesta
ElectronicTemperature 300.0 K       # Default: 300.0 K
#(6) Molecular dynamics and relaxations
#MD.TypeOfRun          CG            # Type of dynamics:
#MD.VariableCell       F
#MD.NumCGsteps         0           # 0 for single-point / 100 for gopt
#MD.MaxCGDispl         0.2 Bohr      # Default: 0.2 Bohr
#MD.MaxForceTol        0.02 eV/Ang   # Default: 0.04 eV/Ang
#MD.MaxStressTol       1.0 GPa       # Default: 1.0 GPa
# Geometry Constraints
#%block GeometryConstraints
#	position from 1 to 44
#%endblock GeometryConstraints
BandLinesScale   pi/a
%block BandLines
 1   0.00000000  0.00000000  0.00000000
50   0.00000000  0.07809418  0.00000000
50   0.04509075  0.07809242  0.00000000
20   0.00000000  0.00000000  0.00000000
%endblock BandLines
************************** End of input data file *****************************

reinit: -----------------------------------------------------------------------
reinit: System Name: GRP_doping
reinit: -----------------------------------------------------------------------
reinit: System Label: GRP_doping                                                  
reinit: -----------------------------------------------------------------------

initatom: Reading input for the pseudopotentials and atomic orbitals ----------
 Species number:            1  Label: B Atomic number:           5
 Species number:            2  Label: C Atomic number:           6
Ground state valence configuration:   2s02  2p01
Reading pseudopotential information in formatted form from B.psf

Valence configuration for pseudopotential generation:
2s( 2.00) rc: 1.74
2p( 1.00) rc: 1.74
3d( 0.00) rc: 1.74
4f( 0.00) rc: 1.74
Ground state valence configuration:   2s02  2p02
Reading pseudopotential information in formatted form from C.psf

Valence configuration for pseudopotential generation:
2s( 2.00) rc: 1.54
2p( 2.00) rc: 1.54
3d( 0.00) rc: 1.54
4f( 0.00) rc: 1.54
For B, standard SIESTA heuristics set lmxkb to 3
 (one more than the basis l, including polarization orbitals).
Use PS.lmax or PS.KBprojectors blocks to override.
For C, standard SIESTA heuristics set lmxkb to 3
 (one more than the basis l, including polarization orbitals).
Use PS.lmax or PS.KBprojectors blocks to override.

<basis_specs>
===============================================================================
B                    Z=   5    Mass=  10.810        Charge= 0.17977+309
Lmxo=1 Lmxkb= 3    BasisType=split      Semic=F
L=0  Nsemic=0  Cnfigmx=2
          n=1  nzeta=2  polorb=0
            splnorm:   0.15000    
               vcte:    0.0000    
               rinn:    0.0000    
                rcs:    0.0000      0.0000    
            lambdas:    1.0000      1.0000    
L=1  Nsemic=0  Cnfigmx=2
          n=1  nzeta=2  polorb=1
            splnorm:   0.15000    
               vcte:    0.0000    
               rinn:    0.0000    
                rcs:    0.0000      0.0000    
            lambdas:    1.0000      1.0000    
-------------------------------------------------------------------------------
L=0  Nkbl=1  erefs: 0.17977+309
L=1  Nkbl=1  erefs: 0.17977+309
L=2  Nkbl=1  erefs: 0.17977+309
L=3  Nkbl=1  erefs: 0.17977+309
===============================================================================
</basis_specs>

atom: Called for B                     (Z =   5)

read_vps: Pseudopotential generation method:
read_vps: ATM3      Troullier-Martins                       
Total valence charge:    3.00000

read_vps: Pseudopotential includes a core correction:
read_vps: Pseudo-core for xc-correction

xc_check: Exchange-correlation functional:
xc_check: GGA Perdew, Burke & Ernzerhof 1996
V l=0 = -2*Zval/r beyond r=  1.7165
V l=1 = -2*Zval/r beyond r=  1.7165
V l=2 = -2*Zval/r beyond r=  1.7165
V l=3 = -2*Zval/r beyond r=  1.6951
All V_l potentials equal beyond r=  1.7165
This should be close to max(r_c) in ps generation
All pots = -2*Zval/r beyond r=  1.7165

VLOCAL1: 99.0% of the norm of Vloc inside     14.733 Ry
VLOCAL1: 99.9% of the norm of Vloc inside     33.577 Ry
atom: Maximum radius for 4*pi*r*r*local-pseudopot. charge    2.04484
atom: Maximum radius for r*vlocal+2*Zval:    1.75994
GHOST: No ghost state for L =  0
GHOST: No ghost state for L =  1
GHOST: No ghost state for L =  2
GHOST: No ghost state for L =  3

KBgen: Kleinman-Bylander projectors: 
   l= 0   rc=  1.897051   el= -0.693730   Ekb=  4.595746   kbcos=  0.286105
   l= 1   rc=  1.920920   el= -0.265236   Ekb= -2.350715   kbcos= -0.315747
   l= 2   rc=  2.044840   el=  0.002055   Ekb= -0.690767   kbcos= -0.013822
   l= 3   rc=  2.149707   el=  0.003188   Ekb= -0.315358   kbcos= -0.002055

KBgen: Total number of  Kleinman-Bylander projectors:   16
atom: -------------------------------------------------------------------------

atom: SANKEY-TYPE ORBITALS:
atom: Selected multiple-zeta basis: split     

SPLIT: Orbitals with angular momentum L= 0

SPLIT: Basis orbitals for state 2s

SPLIT: PAO cut-off radius determined from an
SPLIT: energy shift=  0.007350 Ry

   izeta = 1
                 lambda =    1.000000
                     rc =    5.422032
                 energy =   -0.686029
                kinetic =    0.576707
    potential(screened) =   -1.262736
       potential(ionic) =   -3.271094

   izeta = 2
                 rmatch =    4.222573
              splitnorm =    0.150000
                 energy =   -0.602132
                kinetic =    0.858975
    potential(screened) =   -1.461107
       potential(ionic) =   -3.582536

SPLIT: Orbitals with angular momentum L= 1

SPLIT: Basis orbitals for state 2p

SPLIT: PAO cut-off radius determined from an
SPLIT: energy shift=  0.007350 Ry

   izeta = 1
                 lambda =    1.000000
                     rc =    6.790259
                 energy =   -0.258578
                kinetic =    1.481412
    potential(screened) =   -1.739989
       potential(ionic) =   -3.657461

   izeta = 2
                 rmatch =    4.608740
              splitnorm =    0.150000
                 energy =   -0.173757
                kinetic =    2.186690
    potential(screened) =   -2.360447
       potential(ionic) =   -4.464260

POLgen: Perturbative polarization orbital with L=  2

POLgen: Polarization orbital for state 2p

   izeta = 1
                     rc =    6.790259
                 energy =    0.684082
                kinetic =    1.471481
    potential(screened) =   -0.787399
       potential(ionic) =   -2.406985
atom: Total number of Sankey-type orbitals: 13

atm_pop: Valence configuration (for local Pseudopot. screening):
 2s( 2.00)                                                            
 2p( 1.00)                                                            
Vna: chval, zval:    3.00000   3.00000

Vna:  Cut-off radius for the neutral-atom potential:   6.790259
comcore: Pseudo-core radius Rcore=  2.122997

atom: _________________________________________________________________________

<basis_specs>
===============================================================================
C                    Z=   6    Mass=  12.010        Charge= 0.17977+309
Lmxo=1 Lmxkb= 3    BasisType=split      Semic=F
L=0  Nsemic=0  Cnfigmx=2
          n=1  nzeta=2  polorb=0
            splnorm:   0.15000    
               vcte:    0.0000    
               rinn:    0.0000    
                rcs:    0.0000      0.0000    
            lambdas:    1.0000      1.0000    
L=1  Nsemic=0  Cnfigmx=2
          n=1  nzeta=2  polorb=1
            splnorm:   0.15000    
               vcte:    0.0000    
               rinn:    0.0000    
                rcs:    0.0000      0.0000    
            lambdas:    1.0000      1.0000    
-------------------------------------------------------------------------------
L=0  Nkbl=1  erefs: 0.17977+309
L=1  Nkbl=1  erefs: 0.17977+309
L=2  Nkbl=1  erefs: 0.17977+309
L=3  Nkbl=1  erefs: 0.17977+309
===============================================================================
</basis_specs>

atom: Called for C                     (Z =   6)

read_vps: Pseudopotential generation method:
read_vps: ATM3      Troullier-Martins                       
Total valence charge:    4.00000

read_vps: Pseudopotential includes a core correction:
read_vps: Pseudo-core for xc-correction

xc_check: Exchange-correlation functional:
xc_check: GGA Perdew, Burke & Ernzerhof 1996
V l=0 = -2*Zval/r beyond r=  1.5227
V l=1 = -2*Zval/r beyond r=  1.5227
V l=2 = -2*Zval/r beyond r=  1.5227
V l=3 = -2*Zval/r beyond r=  1.5038
All V_l potentials equal beyond r=  1.5227
This should be close to max(r_c) in ps generation
All pots = -2*Zval/r beyond r=  1.5227

VLOCAL1: 99.0% of the norm of Vloc inside     18.722 Ry
VLOCAL1: 99.9% of the norm of Vloc inside     42.668 Ry
atom: Maximum radius for 4*pi*r*r*local-pseudopot. charge    1.83678
atom: Maximum radius for r*vlocal+2*Zval:    1.58088
GHOST: No ghost state for L =  0
GHOST: No ghost state for L =  1
GHOST: No ghost state for L =  2
GHOST: No ghost state for L =  3

KBgen: Kleinman-Bylander projectors: 
   l= 0   rc=  1.704034   el= -1.009801   Ekb=  5.335044   kbcos=  0.316824
   l= 1   rc=  1.704034   el= -0.388707   Ekb= -3.785862   kbcos= -0.366464
   l= 2   rc=  1.791422   el=  0.001971   Ekb= -0.970471   kbcos= -0.009212
   l= 3   rc=  1.859892   el=  0.003065   Ekb= -0.399525   kbcos= -0.001223

KBgen: Total number of  Kleinman-Bylander projectors:   16
atom: -------------------------------------------------------------------------

atom: SANKEY-TYPE ORBITALS:
atom: Selected multiple-zeta basis: split     

SPLIT: Orbitals with angular momentum L= 0

SPLIT: Basis orbitals for state 2s

SPLIT: PAO cut-off radius determined from an
SPLIT: energy shift=  0.007350 Ry

   izeta = 1
                 lambda =    1.000000
                     rc =    4.632753
                 energy =   -1.002270
                kinetic =    0.855760
    potential(screened) =   -1.858031
       potential(ionic) =   -5.417575

   izeta = 2
                 rmatch =    3.431921
              splitnorm =    0.150000
                 energy =   -0.867111
                kinetic =    1.300804
    potential(screened) =   -2.167915
       potential(ionic) =   -5.962684

SPLIT: Orbitals with angular momentum L= 1

SPLIT: Basis orbitals for state 2p

SPLIT: PAO cut-off radius determined from an
SPLIT: energy shift=  0.007350 Ry

   izeta = 1
                 lambda =    1.000000
                     rc =    5.658549
                 energy =   -0.381140
                kinetic =    2.399701
    potential(screened) =   -2.780841
       potential(ionic) =   -6.206085

   izeta = 2
                 rmatch =    3.653288
              splitnorm =    0.150000
                 energy =   -0.249149
                kinetic =    3.542762
    potential(screened) =   -3.791911
       potential(ionic) =   -7.581078

POLgen: Perturbative polarization orbital with L=  2

POLgen: Polarization orbital for state 2p

   izeta = 1
                     rc =    5.658549
                 energy =    1.109913
                kinetic =    2.304789
    potential(screened) =   -1.194876
       potential(ionic) =   -4.013592
atom: Total number of Sankey-type orbitals: 13

atm_pop: Valence configuration (for local Pseudopot. screening):
 2s( 2.00)                                                            
 2p( 2.00)                                                            
Vna: chval, zval:    4.00000   4.00000

Vna:  Cut-off radius for the neutral-atom potential:   5.658549
comcore: Pseudo-core radius Rcore=  1.791422

atom: _________________________________________________________________________

prinput: Basis input ----------------------------------------------------------

PAO.BasisType split     

%block ChemicalSpeciesLabel
    1    5 B                       # Species index, atomic number, species label
    2    6 C                       # Species index, atomic number, species label
%endblock ChemicalSpeciesLabel

%block PAO.Basis                 # Define Basis set
B                     2                    # Species label, number of l-shells
 n=2   0   2                         # n, l, Nzeta 
   5.422      4.223   
   1.000      1.000   
 n=2   1   2 P   1                   # n, l, Nzeta, Polarization, NzetaPol
   6.790      4.609   
   1.000      1.000   
C                     2                    # Species label, number of l-shells
 n=2   0   2                         # n, l, Nzeta 
   4.633      3.432   
   1.000      1.000   
 n=2   1   2 P   1                   # n, l, Nzeta, Polarization, NzetaPol
   5.659      3.653   
   1.000      1.000   
%endblock PAO.Basis

prinput: ----------------------------------------------------------------------

coor:   Atomic-coordinates input format  =     Fractional

siesta: Atomic coordinates (Bohr) and species
siesta:     -0.02582   5.28395   0.00000  1        1
siesta:      2.30256   6.62836   0.00000  1        2
siesta:      2.30256   9.31683   0.00000  1        3
siesta:     -2.35420   6.62836   0.00000  1        4
siesta:     -2.35420   9.31683   0.00000  1        5
siesta:     -0.02582  10.66124   0.00000  1        6
siesta:     -0.02582  21.41544   0.00000  1        7
siesta:      2.30256  22.75985   0.00000  1        8
siesta:      2.30256  25.44831   0.00000  1        9
siesta:     -4.68258  21.41544   0.00000  1       10
siesta:     -2.35420  22.75985   0.00000  1       11
siesta:     -2.35420  25.44831   0.00000  1       12
siesta:     -9.33934  21.41544   0.00000  1       13
siesta:     -7.01096  22.75985   0.00000  1       14
siesta:     -7.01096  25.44831   0.00000  1       15
siesta:    -11.66772  22.75985   0.00000  1       16
siesta:    -11.66772  25.44831   0.00000  1       17
siesta:     -9.33934  26.79272   0.00000  1       18
siesta:     -0.02582  26.79272   0.00000  1       19
siesta:     -4.68258  26.79272   0.00000  1       20
siesta:     -0.02582   2.59549   0.00000  2       21
siesta:     -2.35420  38.89134   0.00000  2       22
siesta:     -2.35420  41.57980   0.00000  2       23
siesta:      2.30256  38.89134   0.00000  2       24
siesta:      2.30256  41.57980   0.00000  2       25
siesta:      4.63094  34.85847   0.00000  2       26
siesta:      4.63094  37.54693   0.00000  2       27
siesta:      6.95932  30.82560   0.00000  2       28
siesta:      6.95932  33.51406   0.00000  2       29
siesta:      9.28770  26.79272   0.00000  2       30
siesta:      9.28770  29.48119   0.00000  2       31
siesta:     -4.68258  34.85847   0.00000  2       32
siesta:     -4.68258  37.54693   0.00000  2       33
siesta:      4.63094  10.66124   0.00000  2       34
siesta:      4.63094  13.34970   0.00000  2       35
siesta:      6.95932  14.69411   0.00000  2       36
siesta:      6.95932  17.38257   0.00000  2       37
siesta:      9.28770  18.72698   0.00000  2       38
siesta:      9.28770  21.41544   0.00000  2       39
siesta:     11.61608  22.75985   0.00000  2       40
siesta:     11.61608  25.44831   0.00000  2       41
siesta:     -0.02582  13.34970   0.00000  2       42
siesta:      2.30256  14.69411   0.00000  2       43
siesta:      2.30256  17.38257   0.00000  2       44
siesta:      4.63094  18.72698   0.00000  2       45
siesta:      4.63094  21.41544   0.00000  2       46
siesta:      6.95932  22.75985   0.00000  2       47
siesta:      6.95932  25.44831   0.00000  2       48
siesta:     -4.68258  10.66124   0.00000  2       49
siesta:     -4.68258  13.34970   0.00000  2       50
siesta:     -2.35420  14.69411   0.00000  2       51
siesta:     -2.35420  17.38257   0.00000  2       52
siesta:     -0.02582  18.72698   0.00000  2       53
siesta:     -7.01096  14.69411   0.00000  2       54
siesta:     -7.01096  17.38257   0.00000  2       55
siesta:     -4.68258  18.72698   0.00000  2       56
siesta:     -9.33934  18.72698   0.00000  2       57
siesta:     -9.33934  29.48119   0.00000  2       58
siesta:      4.63094  26.79272   0.00000  2       59
siesta:      4.63094  29.48119   0.00000  2       60
siesta:     -0.02582  29.48119   0.00000  2       61
siesta:     -4.68258  29.48119   0.00000  2       62
siesta:      2.30256  30.82560   0.00000  2       63
siesta:      2.30256  33.51406   0.00000  2       64
siesta:     -2.35420  30.82560   0.00000  2       65
siesta:     -2.35420  33.51406   0.00000  2       66
siesta:     -7.01096  30.82560   0.00000  2       67
siesta:     -7.01096  33.51406   0.00000  2       68
siesta:     -0.02582  34.85847   0.00000  2       69
siesta:     -0.02582  37.54693   0.00000  2       70
siesta:     -0.02582  42.92421   0.00000  2       71
siesta:     -0.02582  45.61267   0.00000  2       72

siesta: System type = slab      

initatomlists: Number of atoms, orbitals, and projectors:     72   936  1152

siesta: ******************** Simulation parameters ****************************
siesta:
siesta: The following are some of the parameters of the simulation.
siesta: A complete list of the parameters used, including default values,
siesta: can be found in file out.fdf
siesta:
redata: Non-Collinear-spin run           =     F
redata: SpinPolarized (Up/Down) run      =     F
redata: Number of spin components        =     1
redata: Long output                      =     F
redata: Number of Atomic Species         =        2
redata: Charge density info will appear in .RHO file
redata: Write Mulliken Pop.              =     NO
redata: Mesh Cutoff                      =   200.0000  Ry
redata: Net charge of the system         =     0.0000 |e|
redata: Max. number of SCF Iter          =      500
redata: SCF convergence failure will abort job
redata: Performing Pulay mixing using    =    10 iterations
redata: Mix DM in first SCF step ?       =     F
redata: Write Pulay info on disk?        =     F
redata: Discard 1st Pulay DM after  kick =     F
redata: New DM Mixing Weight             =     0.0500
redata: New DM Occupancy tolerance       = 0.000000000001
redata: No kicks to SCF
redata: DM Mixing Weight for Kicks       =     0.5000
redata: DM Tolerance for SCF             =     0.000100
redata: Require Energy convergence for SCF =     F
redata: DM Energy tolerance for SCF      =     0.000100 eV
redata: Require Harris convergence for SCF =     F
redata: DM Harris energy tolerance for SCF =     0.000100 eV
redata: Using Saved Data (generic)   =     F
redata: Use continuation files for DM    =     T
redata: Neglect nonoverlap interactions  =     F
redata: Method of Calculation            =     Diagonalization
redata: Divide and Conquer               =     T
redata: Electronic Temperature           =     0.0019  Ry
redata: Fix the spin of the system       =     F
redata: Dynamics option                  =     Verlet MD run
redata: Initial MD time step             =        1
redata:   Final MD time step             =        1
redata: Length of MD time step           =     1.0000  fs
redata: Initial Temperature of MD run    =     0.0000  K
redata: Perform a MD quench              =     F
redata: ***********************************************************************
Total number of electrons:   268.000000
Total ionic charge:   268.000000

* ProcessorY, Blocksize:    2  24

k-point displ. along   1 input, could be:     0.50    0.00
k-point displ. along   2 input, could be:     0.50    0.00
 Kpoints in:          231 . Kpoints trimmed:          231

siesta: k-grid: Number of k-points =   231
siesta: k-grid: Cutoff (effective) =     5.000 Ang
siesta: k-grid: Supercell and displacements
siesta: k-grid:   21   0   0      0.500
siesta: k-grid:    0  21   0      0.500
siesta: k-grid:    0   0   1      0.000
Naive supercell factors:     2    2    2

superc: Internal auxiliary supercell:     2 x     2 x     2  =       8
superc: Number of atoms, orbitals, and projectors:    576   7488   9216

* Maximum dynamic memory allocated =     4 MB

siesta:                 ==============================
                            Begin MD step =      1
                        ==============================

superc: Internal auxiliary supercell:     2 x     2 x     2  =       8
superc: Number of atoms, orbitals, and projectors:    576   7488   9216

outcell: Unit cell vectors (Ang):
       12.804619    7.392750    0.000000
        0.000000   14.785500    0.000000
        0.000000    0.000000   10.000000

outcell: Cell vector modules (Ang)   :   14.785500   14.785500   10.000000
outcell: Cell angles (23,13,12) (deg):     90.0000     90.0000     60.0000
outcell: Cell volume (Ang**3)        :   1893.2269
New_DM. Step:     1
Initializing Density Matrix...

InitMesh: MESH =   120 x   120 x    90 =     1296000
InitMesh: Mesh cutoff (required, used) =   200.000   223.865 Ry

* Maximum dynamic memory allocated =   227 MB

stepf: Fermi-Dirac step function

siesta: Program's energy decomposition (eV):
siesta: Ebs     =     -5535.412599
siesta: Eions   =     15841.876847
siesta: Ena     =      4254.486401
siesta: Ekin    =      5323.417823
siesta: Enl     =       814.735044
siesta: DEna    =        -0.000008
siesta: DUscf   =         0.000000
siesta: DUext   =         0.000000
siesta: Exc     =     -4198.325847
siesta: eta*DQ  =         0.000000
siesta: Emadel  =         0.000000
siesta: Emeta   =         0.000000
siesta: Emolmec =         0.000000
siesta: Ekinion =         0.000000
siesta: Eharris =     -9418.597607
siesta: Etot    =     -9647.563434
siesta: FreeEng =     -9647.563434

siesta: iscf   Eharris(eV)      E_KS(eV)   FreeEng(eV)   dDmax  Ef(eV)
siesta:    1    -9418.5976    -9647.5634    -9647.5634  7.0934 -8.4129
timer: Routine,Calls,Time,% = IterSCF        1    4736.016  99.75
elaps: Routine,Calls,Wall,% = IterSCF        1     592.799  99.75
siesta:    2   -15193.9980    -8474.0026    -8474.0672 21.5598 -4.6715
siesta:    3    -9394.8817    -9500.7643    -9500.7811  3.2572 -6.2441
siesta:    4    -9362.8690    -9402.3635    -9402.3674  1.9292 -5.2828
siesta:    5    -9301.9346    -9309.8123    -9309.8234  1.3938 -5.1415
siesta:    6    -9268.9691    -9252.9228    -9252.9921  1.2323 -4.8942
siesta:    7    -9261.9484    -9240.1374    -9240.2192  1.0756 -5.0032
siesta:    8    -9260.0097    -9238.6760    -9238.7275  1.0574 -4.9824
siesta:    9    -9255.4951    -9236.1962    -9236.2287  0.7819 -5.0309
siesta:   10    -9253.1392    -9232.5241    -9232.5966  0.8135 -4.9768
siesta:   11    -9254.2960    -9222.3908    -9222.4551  0.5600 -5.0510
siesta:   12    -9253.0976    -9221.4659    -9221.5475  0.4647 -5.0711
siesta:   13    -9253.0359    -9220.1410    -9220.2151  0.5469 -5.0035
siesta:   14    -9250.7567    -9222.2519    -9222.3335  0.4015 -5.0243
siesta:   15    -9250.5113    -9223.1645    -9223.2158  0.3559 -5.0132
siesta:   16    -9250.2109    -9224.8354    -9224.9034  0.4031 -5.0476
siesta:   17    -9249.9101    -9229.4343    -9229.4877  0.1826 -5.0338
siesta:   18    -9249.8480    -9231.3169    -9231.4023  0.2625 -5.0491
siesta:   19    -9249.8223    -9233.6388    -9233.7197  0.2671 -5.0446
siesta:   20    -9249.8163    -9237.0400    -9237.1242  0.3019 -5.0116
siesta:   21    -9249.7461    -9237.1149    -9237.1998  0.1886 -5.0472
siesta:   22    -9249.7666    -9240.0783    -9240.1623  0.1677 -5.0577
siesta:   23    -9249.7502    -9242.1531    -9242.2362  0.1839 -5.0789
siesta:   24    -9249.7217    -9245.4497    -9245.5261  0.0341 -5.0718
siesta:   25    -9249.7031    -9246.8906    -9246.9775  0.0328 -5.0791
siesta:   26    -9249.6991    -9247.9294    -9248.0165  0.0249 -5.0767
siesta:   27    -9249.6978    -9248.6178    -9248.7062  0.0195 -5.0783
siesta:   28    -9249.6960    -9248.8955    -9248.9833  0.0129 -5.0762
siesta:   29    -9249.6955    -9249.2608    -9249.3490  0.0256 -5.0707
siesta:   30    -9249.6950    -9249.5197    -9249.6089  0.0104 -5.0701
siesta:   31    -9249.6949    -9249.6001    -9249.6891  0.0107 -5.0688
siesta:   32    -9249.6951    -9249.6407    -9249.7294  0.0052 -5.0687
siesta:   33    -9249.6955    -9249.5211    -9249.6096  0.0086 -5.0693
siesta:   34    -9249.6952    -9249.6214    -9249.7094  0.0033 -5.0681
siesta:   35    -9249.6951    -9249.6548    -9249.7430  0.0020 -5.0677
siesta:   36    -9249.6950    -9249.6773    -9249.7657  0.0021 -5.0678
siesta:   37    -9249.6950    -9249.7034    -9249.7917  0.0011 -5.0679
siesta:   38    -9249.6950    -9249.7048    -9249.7932  0.0009 -5.0680
siesta:   39    -9249.6950    -9249.7065    -9249.7948  0.0006 -5.0681
siesta:   40    -9249.6950    -9249.7102    -9249.7985  0.0006 -5.0682
siesta:   41    -9249.6950    -9249.7213    -9249.8096  0.0003 -5.0681
siesta:   42    -9249.6950    -9249.7224    -9249.8108  0.0002 -5.0682
siesta:   43    -9249.6950    -9249.7180    -9249.8063  0.0001 -5.0683

siesta: E_KS(eV) =            -9249.7140

siesta: E_KS - E_eggbox =     -9249.7140

siesta: Atomic forces (eV/Ang):
----------------------------------------
   Tot   -0.065323    0.071029    0.000000
----------------------------------------
   Max  570.051469
   Res  148.479353    sqrt( Sum f_i^2 / 3N )
----------------------------------------
   Max  570.051469    constrained

Stress-tensor-Voigt (kbar):     -758.83    -2684.53       -0.62       -0.22        0.00        0.00
(Free)E + p*V (eV/cell)    -7893.2784
Target enthalpy (eV/cell)    -9249.8023

siesta: Stress tensor (static) (eV/Ang**3):
        -0.473618   -0.000136    0.000000
        -0.000136   -1.675534    0.000000
         0.000000    0.000000   -0.000390

siesta: Pressure (static):       1147.99468771  kBar

siesta: Stress tensor (total) (eV/Ang**3):
        -0.473618   -0.000136    0.000000
        -0.000136   -1.675534    0.000000
         0.000000    0.000000   -0.000390

siesta: Pressure (total):       1147.99468771  kBar

siesta: Temp_ion =       0.000 K

* Maximum dynamic memory allocated =   244 MB
Computing bands...

siesta: Program's energy decomposition (eV):
siesta: Ebs     =     -4160.689810
siesta: Eions   =     15841.876847
siesta: Ena     =      4254.486401
siesta: Ekin    =      8190.153519
siesta: Enl     =      -813.878789
siesta: DEna    =      -775.789982
siesta: DUscf   =       103.827270
siesta: DUext   =         0.000000
siesta: Exc     =     -4366.635561
siesta: eta*DQ  =         0.000000
siesta: Emadel  =         0.000000
siesta: Emeta   =         0.000000
siesta: Emolmec =         0.000000
siesta: Ekinion =         0.000000
siesta: Eharris =     -9249.694985
siesta: Etot    =     -9249.713988
siesta: FreeEng =     -9249.802328

siesta: Final energy (eV):
siesta:  Band Struct. =   -4160.689810
siesta:       Kinetic =    8190.153519
siesta:       Hartree =   26628.456291
siesta:    Ext. field =       0.000000
siesta:   Exch.-corr. =   -4366.635561
siesta:  Ion-electron =  -61162.457817
siesta:       Ion-ion =   21460.769581
siesta:       Ekinion =       0.000000
siesta:         Total =   -9249.713988

siesta: Atomic forces (eV/Ang):
siesta:      1   -0.398969 -106.042877    0.000000
siesta:      2   -3.570573  397.056087    0.000000
siesta:      3   -2.345318 -105.577354    0.000000
siesta:      4    2.865270  395.772753    0.000000
siesta:      5    2.502329 -105.598285    0.000000
siesta:      6   -0.446759  388.397685    0.000000
siesta:      7   -0.521059   -4.617727    0.000000
siesta:      8    3.297112   -2.268033    0.000000
siesta:      9    3.461188    2.326985    0.000000
siesta:     10    0.688323   -5.112433    0.000000
siesta:     11    0.140337    1.238760    0.000000
siesta:     12   -0.128948   -1.135762    0.000000
siesta:     13   -4.579400   -6.502865    0.000000
siesta:     14    0.652884    0.235249    0.000000
siesta:     15    0.808181   -0.358767    0.000000
siesta:     16   -6.145662   -2.968774    0.000000
siesta:     17   -5.940133    2.883214    0.000000
siesta:     18   -4.617116    6.547663    0.000000
siesta:     19   -0.478613    4.512462    0.000000
siesta:     20    0.629019    5.113300    0.000000
siesta:     21    0.698830  554.529721    0.000000
siesta:     22   -0.869929  127.164572    0.000000
siesta:     23  -19.310874 -551.562284    0.000000
siesta:     24    0.555807  127.046384    0.000000
siesta:     25   18.927653 -551.328850    0.000000
siesta:     26   24.626247    1.220669    0.000000
siesta:     27   34.933278 -549.948453    0.000000
siesta:     28    2.175892    0.141145    0.000000
siesta:     29   -1.518796    2.903066    0.000000
siesta:     30    2.369921    1.502882    0.000000
siesta:     31   -1.057626    0.857122    0.000000
siesta:     32  -24.269233    1.883224    0.000000
siesta:     33  -35.191346 -550.657633    0.000000
siesta:     34   28.572891  543.281617    0.000000
siesta:     35   26.700915   -6.523447    0.000000
siesta:     36   -2.175554   -2.218237    0.000000
siesta:     37    1.922174   -0.244404    0.000000
siesta:     38   -0.965326   -0.711758    0.000000
siesta:     39    2.329605   -1.651782    0.000000
siesta:     40   -0.218904    6.768898    0.000000
siesta:     41   -0.338700   -6.774791    0.000000
siesta:     42   -0.110399 -130.545544    0.000000
siesta:     43   20.253834  556.387904    0.000000
siesta:     44   22.498302   -6.169501    0.000000
siesta:     45   -0.792127    2.253285    0.000000
siesta:     46    2.703387   -1.991560    0.000000
siesta:     47   -0.091899    0.120283    0.000000
siesta:     48   -0.053819   -0.147617    0.000000
siesta:     49  -27.919193  544.059659    0.000000
siesta:     50  -26.859409   -6.627730    0.000000
siesta:     51  -19.283273  556.384124    0.000000
siesta:     52  -22.771540   -6.387066    0.000000
siesta:     53   -0.256987  559.781332    0.000000
siesta:     54    2.471314   -1.881172    0.000000
siesta:     55   -2.577167   -2.046519    0.000000
siesta:     56    1.567537   -1.503153    0.000000
siesta:     57    2.559538   -1.735107    0.000000
siesta:     58    2.596313    1.882550    0.000000
siesta:     59    2.490061    1.676648    0.000000
siesta:     60   -0.989799   -1.572168    0.000000
siesta:     61   -0.475479 -570.051469    0.000000
siesta:     62    2.023003    1.894561    0.000000
siesta:     63   18.978612    3.348506    0.000000
siesta:     64   31.478396 -410.833143    0.000000
siesta:     65  -19.572755    3.983155    0.000000
siesta:     66  -30.414720 -410.065136    0.000000
siesta:     67   -2.805292    2.248964    0.000000
siesta:     68    1.672166    1.999786    0.000000
siesta:     69   -0.026431  123.358571    0.000000
siesta:     70    0.092225 -397.153014    0.000000
siesta:     71   -0.278642  131.306416    0.000000
siesta:     72    0.059898 -551.483760    0.000000
siesta: ----------------------------------------
siesta:    Tot   -0.065323    0.071029    0.000000

siesta: Stress tensor (static) (eV/Ang**3):
siesta:    -0.473618   -0.000136    0.000000
siesta:    -0.000136   -1.675534    0.000000
siesta:     0.000000    0.000000   -0.000390

siesta: Cell volume =       1893.226884 Ang**3

siesta: Pressure (static):
siesta:                Solid            Molecule  Units
siesta:           0.00780375          0.11411296  Ry/Bohr**3
siesta:           0.71651418         10.47746391  eV/Ang**3
siesta:        1147.99468771      16786.92930254  kBar
(Free)E+ p_basis*V_orbitals  =       -9212.745642
(Free)Eharris+ p_basis*V_orbitals  =       -9212.722640

siesta: Electric dipole (a.u.)  =    0.000000    0.000000    0.000000
siesta: Electric dipole (Debye) =    0.000000    0.000000    0.000000

* Maximum dynamic memory allocated : Node    0 =   244 MB
* Maximum dynamic memory allocated : Node    1 =    85 MB
* Maximum dynamic memory allocated : Node    2 =    89 MB
* Maximum dynamic memory allocated : Node    3 =   231 MB
* Maximum dynamic memory allocated : Node    4 =   224 MB
* Maximum dynamic memory allocated : Node    5 =    81 MB
* Maximum dynamic memory allocated : Node    6 =    84 MB
* Maximum dynamic memory allocated : Node    7 =   206 MB

* Maximum memory occured during matrixMtoO                    

timer: CPU execution times:
timer:  Routine       Calls   Time/call    Tot.time        %
timer:  siesta            1  201823.755  201823.755   100.00
timer:  Setup             1       3.015       3.015     0.00
timer:  bands             3     272.536     817.607     0.41
timer:  writewave         1       0.017       0.017     0.00
timer:  KSV_init          1       0.001       0.001     0.00
timer:  IterMD            1  200997.290  200997.290    99.59
timer:  hsparse           1       0.391       0.391     0.00
timer:  overlap           1       7.797       7.797     0.00
timer:  IterSCF          43    4668.697  200753.992    99.47
timer:  kinefsm           2       4.038       8.076     0.00
timer:  nlefsm            2      21.360      42.720     0.02
timer:  DHSCF            44     125.002    5500.077     2.73
timer:  DHSCF1            1       1.006       1.006     0.00
timer:  DHSCF2            1      45.700      45.700     0.02
timer:  REORD           354       0.011       3.811     0.00
timer:  POISON           45       2.409     108.383     0.05
timer:  DHSCF3           44     122.890    5407.146     2.68
timer:  rhoofd           44      25.688    1130.268     0.56
timer:  cellXC           44       3.504     154.165     0.08
timer:  vmat             44      59.982    2639.229     1.31
timer:  MolMec            2       0.000       0.000     0.00
timer:  diagon           43    4542.577  195330.829    96.78
timer:  c-eigval      10054       6.773   68095.427    33.74
timer:  c-buildHS     10054       0.145    1461.259     0.72
timer:  cdiag         19987       6.985  139604.765    69.17
timer:  cdiag1        19987       0.437    8727.663     4.32
timer:  cdiag2        19987       1.925   38481.692    19.07
timer:  cdiag3        19987       3.970   79353.797    39.32
timer:  cdiag4        19987       0.232    4637.203     2.30
timer:  c-eigvec       9933       7.416   73661.521    36.50
timer:  c-buildD       9933       5.470   54335.942    26.92
timer:  DHSCF4            1      43.738      43.738     0.02
timer:  dfscf             1      41.070      41.070     0.02
timer:  overfsm           1       0.484       0.484     0.00
timer:  optical           1       5.100       5.100     0.00
  

elaps: ELAPSED times:
elaps:  Routine       Calls   Time/call    Tot.time        %
elaps:  siesta            1   25260.433   25260.433   100.00
elaps:  Setup             1       0.378       0.378     0.00
elaps:  bands             3      34.119     102.356     0.41
elaps:  writewave         1       0.002       0.002     0.00
elaps:  KSV_init          1       0.000       0.000     0.00
elaps:  IterMD            1   25157.026   25157.026    99.59
elaps:  hsparse           1       0.049       0.049     0.00
elaps:  overlap           1       0.978       0.978     0.00
elaps:  IterSCF          43     584.339   25126.591    99.47
elaps:  kinefsm           2       0.506       1.012     0.00
elaps:  nlefsm            2       2.815       5.629     0.02
elaps:  DHSCF            44      15.764     693.627     2.75
elaps:  DHSCF1            1       0.127       0.127     0.00
elaps:  DHSCF2            1       5.718       5.718     0.02
elaps:  REORD           354       0.001       0.523     0.00
elaps:  POISON           45       0.301      13.545     0.05
elaps:  DHSCF3           44      15.374     676.443     2.68
elaps:  rhoofd           44       6.971     306.706     1.21
elaps:  cellXC           44       0.438      19.262     0.08
elaps:  vmat             44       7.504     330.165     1.31
elaps:  MolMec            2       0.000       0.000     0.00
elaps:  diagon           43     568.588   24449.272    96.79
elaps:  c-eigval      10054       0.847    8520.041    33.73
elaps:  c-buildHS     10054       0.020     197.291     0.78
elaps:  cdiag         19987       0.858   17144.751    67.87
elaps:  cdiag1        19987       0.054    1076.620     4.26
elaps:  cdiag2        19987       0.241    4815.228    19.06
elaps:  cdiag3        19987       0.497    9942.419    39.36
elaps:  cdiag4        19987       0.029     585.573     2.32
elaps:  c-eigvec       9933       0.900    8935.659    35.37
elaps:  c-buildD       9933       0.713    7086.560    28.05
elaps:  DHSCF4            1      10.990      10.990     0.04
elaps:  dfscf             1      10.460      10.460     0.04
elaps:  overfsm           1       0.058       0.058     0.00
elaps:  optical           1       0.000       0.000     0.00
  
>> End of run:  27-APR-2016  14:49:09
