Siesta Version:                                        siesta-3.2-pl-3
Architecture  : x86_64-unknown-linux-gnu--unknown
Compiler flags: mpiifort -g -O2 -fPIC -xSSE4.1 -fp-model source -shared-intel 
PARALLEL version

* Running on    8 nodes in parallel
>> Start of run:   2-MAY-2016   2:48:49

                           ***********************       
                           *  WELCOME TO SIESTA  *       
                           ***********************       

reinit: Reading from standard input
************************** Dump of input data file ****************************
#(1) General system descriptors
SystemName            GRP_doping    # Descriptive name of the system
SystemLabel           GRP_doping    # Short name for naming files
%include STRUCT.fdf
%include KPT.fdf
%include BASIS.fdf
#%include TS.fdf # for transiesta calculation
#(4) DFT, Grid, SCF
XC.functional         GGA           # LDA or GGA (default = LDA)
XC.authors            PBE           # CA (Ceperley-Aldr) = PZ
                                    #    (Perdew-Zunger) - LDA - Default
                                    # PW92 (Perdew-Wang-92) - LDA
                                    # PBE (Perdew-Burke-Ernzerhof) - GGA
MeshCutoff            200.000000    Ry      # Default: 50.0 Ry ~ 0.444 Bohr
                                    #         100.0 Ry ~ 0.314 Bohr
MaxSCFIterations      500           # Default: 50
DM.MixingWeight       0.05          # Default: 0.25
DM.NumberPulay        10            # Default: 0
DM.PulayOnFile        F             # SystemLabel.P1, SystemLabel.P2
DM.Tolerance          1.d-4         # Default: 1.d-4
DM.UseSaveDM          .true.        # because of the bug
SCFMustConverge       .true.
NeglNonOverlapInt     F             # Default: F
#(5) Eigenvalue problem: order-N or diagonalization
SolutionMethod        Diagon        # or Transiesta
ElectronicTemperature 300.0 K       # Default: 300.0 K
#(6) Molecular dynamics and relaxations
#MD.TypeOfRun          CG            # Type of dynamics:
#MD.VariableCell       F
#MD.NumCGsteps         0           # 0 for single-point / 100 for gopt
#MD.MaxCGDispl         0.2 Bohr      # Default: 0.2 Bohr
#MD.MaxForceTol        0.02 eV/Ang   # Default: 0.04 eV/Ang
#MD.MaxStressTol       1.0 GPa       # Default: 1.0 GPa
# Geometry Constraints
#%block GeometryConstraints
#	position from 1 to 44
#%endblock GeometryConstraints
BandLinesScale   pi/a
%block BandLines
 1   0.00000000  0.00000000  0.00000000
50   0.00000000  0.07809418  0.00000000
50   0.04509075  0.07809242  0.00000000
20   0.00000000  0.00000000  0.00000000
%endblock BandLines
************************** End of input data file *****************************

reinit: -----------------------------------------------------------------------
reinit: System Name: GRP_doping
reinit: -----------------------------------------------------------------------
reinit: System Label: GRP_doping                                                  
reinit: -----------------------------------------------------------------------

initatom: Reading input for the pseudopotentials and atomic orbitals ----------
 Species number:            1  Label: B Atomic number:           5
 Species number:            2  Label: C Atomic number:           6
Ground state valence configuration:   2s02  2p01
Reading pseudopotential information in formatted form from B.psf

Valence configuration for pseudopotential generation:
2s( 2.00) rc: 1.74
2p( 1.00) rc: 1.74
3d( 0.00) rc: 1.74
4f( 0.00) rc: 1.74
Ground state valence configuration:   2s02  2p02
Reading pseudopotential information in formatted form from C.psf

Valence configuration for pseudopotential generation:
2s( 2.00) rc: 1.54
2p( 2.00) rc: 1.54
3d( 0.00) rc: 1.54
4f( 0.00) rc: 1.54
For B, standard SIESTA heuristics set lmxkb to 3
 (one more than the basis l, including polarization orbitals).
Use PS.lmax or PS.KBprojectors blocks to override.
For C, standard SIESTA heuristics set lmxkb to 3
 (one more than the basis l, including polarization orbitals).
Use PS.lmax or PS.KBprojectors blocks to override.

<basis_specs>
===============================================================================
B                    Z=   5    Mass=  10.810        Charge= 0.17977+309
Lmxo=1 Lmxkb= 3    BasisType=split      Semic=F
L=0  Nsemic=0  Cnfigmx=2
          n=1  nzeta=2  polorb=0
            splnorm:   0.15000    
               vcte:    0.0000    
               rinn:    0.0000    
                rcs:    0.0000      0.0000    
            lambdas:    1.0000      1.0000    
L=1  Nsemic=0  Cnfigmx=2
          n=1  nzeta=2  polorb=1
            splnorm:   0.15000    
               vcte:    0.0000    
               rinn:    0.0000    
                rcs:    0.0000      0.0000    
            lambdas:    1.0000      1.0000    
-------------------------------------------------------------------------------
L=0  Nkbl=1  erefs: 0.17977+309
L=1  Nkbl=1  erefs: 0.17977+309
L=2  Nkbl=1  erefs: 0.17977+309
L=3  Nkbl=1  erefs: 0.17977+309
===============================================================================
</basis_specs>

atom: Called for B                     (Z =   5)

read_vps: Pseudopotential generation method:
read_vps: ATM3      Troullier-Martins                       
Total valence charge:    3.00000

read_vps: Pseudopotential includes a core correction:
read_vps: Pseudo-core for xc-correction

xc_check: Exchange-correlation functional:
xc_check: GGA Perdew, Burke & Ernzerhof 1996
V l=0 = -2*Zval/r beyond r=  1.7165
V l=1 = -2*Zval/r beyond r=  1.7165
V l=2 = -2*Zval/r beyond r=  1.7165
V l=3 = -2*Zval/r beyond r=  1.6951
All V_l potentials equal beyond r=  1.7165
This should be close to max(r_c) in ps generation
All pots = -2*Zval/r beyond r=  1.7165

VLOCAL1: 99.0% of the norm of Vloc inside     14.733 Ry
VLOCAL1: 99.9% of the norm of Vloc inside     33.577 Ry
atom: Maximum radius for 4*pi*r*r*local-pseudopot. charge    2.04484
atom: Maximum radius for r*vlocal+2*Zval:    1.75994
GHOST: No ghost state for L =  0
GHOST: No ghost state for L =  1
GHOST: No ghost state for L =  2
GHOST: No ghost state for L =  3

KBgen: Kleinman-Bylander projectors: 
   l= 0   rc=  1.897051   el= -0.693730   Ekb=  4.595746   kbcos=  0.286105
   l= 1   rc=  1.920920   el= -0.265236   Ekb= -2.350715   kbcos= -0.315747
   l= 2   rc=  2.044840   el=  0.002055   Ekb= -0.690767   kbcos= -0.013822
   l= 3   rc=  2.149707   el=  0.003188   Ekb= -0.315358   kbcos= -0.002055

KBgen: Total number of  Kleinman-Bylander projectors:   16
atom: -------------------------------------------------------------------------

atom: SANKEY-TYPE ORBITALS:
atom: Selected multiple-zeta basis: split     

SPLIT: Orbitals with angular momentum L= 0

SPLIT: Basis orbitals for state 2s

SPLIT: PAO cut-off radius determined from an
SPLIT: energy shift=  0.007350 Ry

   izeta = 1
                 lambda =    1.000000
                     rc =    5.422032
                 energy =   -0.686029
                kinetic =    0.576707
    potential(screened) =   -1.262736
       potential(ionic) =   -3.271094

   izeta = 2
                 rmatch =    4.222573
              splitnorm =    0.150000
                 energy =   -0.602132
                kinetic =    0.858975
    potential(screened) =   -1.461107
       potential(ionic) =   -3.582536

SPLIT: Orbitals with angular momentum L= 1

SPLIT: Basis orbitals for state 2p

SPLIT: PAO cut-off radius determined from an
SPLIT: energy shift=  0.007350 Ry

   izeta = 1
                 lambda =    1.000000
                     rc =    6.790259
                 energy =   -0.258578
                kinetic =    1.481412
    potential(screened) =   -1.739989
       potential(ionic) =   -3.657461

   izeta = 2
                 rmatch =    4.608740
              splitnorm =    0.150000
                 energy =   -0.173757
                kinetic =    2.186690
    potential(screened) =   -2.360447
       potential(ionic) =   -4.464260

POLgen: Perturbative polarization orbital with L=  2

POLgen: Polarization orbital for state 2p

   izeta = 1
                     rc =    6.790259
                 energy =    0.684082
                kinetic =    1.471481
    potential(screened) =   -0.787399
       potential(ionic) =   -2.406985
atom: Total number of Sankey-type orbitals: 13

atm_pop: Valence configuration (for local Pseudopot. screening):
 2s( 2.00)                                                            
 2p( 1.00)                                                            
Vna: chval, zval:    3.00000   3.00000

Vna:  Cut-off radius for the neutral-atom potential:   6.790259
comcore: Pseudo-core radius Rcore=  2.122997

atom: _________________________________________________________________________

<basis_specs>
===============================================================================
C                    Z=   6    Mass=  12.010        Charge= 0.17977+309
Lmxo=1 Lmxkb= 3    BasisType=split      Semic=F
L=0  Nsemic=0  Cnfigmx=2
          n=1  nzeta=2  polorb=0
            splnorm:   0.15000    
               vcte:    0.0000    
               rinn:    0.0000    
                rcs:    0.0000      0.0000    
            lambdas:    1.0000      1.0000    
L=1  Nsemic=0  Cnfigmx=2
          n=1  nzeta=2  polorb=1
            splnorm:   0.15000    
               vcte:    0.0000    
               rinn:    0.0000    
                rcs:    0.0000      0.0000    
            lambdas:    1.0000      1.0000    
-------------------------------------------------------------------------------
L=0  Nkbl=1  erefs: 0.17977+309
L=1  Nkbl=1  erefs: 0.17977+309
L=2  Nkbl=1  erefs: 0.17977+309
L=3  Nkbl=1  erefs: 0.17977+309
===============================================================================
</basis_specs>

atom: Called for C                     (Z =   6)

read_vps: Pseudopotential generation method:
read_vps: ATM3      Troullier-Martins                       
Total valence charge:    4.00000

read_vps: Pseudopotential includes a core correction:
read_vps: Pseudo-core for xc-correction

xc_check: Exchange-correlation functional:
xc_check: GGA Perdew, Burke & Ernzerhof 1996
V l=0 = -2*Zval/r beyond r=  1.5227
V l=1 = -2*Zval/r beyond r=  1.5227
V l=2 = -2*Zval/r beyond r=  1.5227
V l=3 = -2*Zval/r beyond r=  1.5038
All V_l potentials equal beyond r=  1.5227
This should be close to max(r_c) in ps generation
All pots = -2*Zval/r beyond r=  1.5227

VLOCAL1: 99.0% of the norm of Vloc inside     18.722 Ry
VLOCAL1: 99.9% of the norm of Vloc inside     42.668 Ry
atom: Maximum radius for 4*pi*r*r*local-pseudopot. charge    1.83678
atom: Maximum radius for r*vlocal+2*Zval:    1.58088
GHOST: No ghost state for L =  0
GHOST: No ghost state for L =  1
GHOST: No ghost state for L =  2
GHOST: No ghost state for L =  3

KBgen: Kleinman-Bylander projectors: 
   l= 0   rc=  1.704034   el= -1.009801   Ekb=  5.335044   kbcos=  0.316824
   l= 1   rc=  1.704034   el= -0.388707   Ekb= -3.785862   kbcos= -0.366464
   l= 2   rc=  1.791422   el=  0.001971   Ekb= -0.970471   kbcos= -0.009212
   l= 3   rc=  1.859892   el=  0.003065   Ekb= -0.399525   kbcos= -0.001223

KBgen: Total number of  Kleinman-Bylander projectors:   16
atom: -------------------------------------------------------------------------

atom: SANKEY-TYPE ORBITALS:
atom: Selected multiple-zeta basis: split     

SPLIT: Orbitals with angular momentum L= 0

SPLIT: Basis orbitals for state 2s

SPLIT: PAO cut-off radius determined from an
SPLIT: energy shift=  0.007350 Ry

   izeta = 1
                 lambda =    1.000000
                     rc =    4.632753
                 energy =   -1.002270
                kinetic =    0.855760
    potential(screened) =   -1.858031
       potential(ionic) =   -5.417575

   izeta = 2
                 rmatch =    3.431921
              splitnorm =    0.150000
                 energy =   -0.867111
                kinetic =    1.300804
    potential(screened) =   -2.167915
       potential(ionic) =   -5.962684

SPLIT: Orbitals with angular momentum L= 1

SPLIT: Basis orbitals for state 2p

SPLIT: PAO cut-off radius determined from an
SPLIT: energy shift=  0.007350 Ry

   izeta = 1
                 lambda =    1.000000
                     rc =    5.658549
                 energy =   -0.381140
                kinetic =    2.399701
    potential(screened) =   -2.780841
       potential(ionic) =   -6.206085

   izeta = 2
                 rmatch =    3.653288
              splitnorm =    0.150000
                 energy =   -0.249149
                kinetic =    3.542762
    potential(screened) =   -3.791911
       potential(ionic) =   -7.581078

POLgen: Perturbative polarization orbital with L=  2

POLgen: Polarization orbital for state 2p

   izeta = 1
                     rc =    5.658549
                 energy =    1.109913
                kinetic =    2.304789
    potential(screened) =   -1.194876
       potential(ionic) =   -4.013592
atom: Total number of Sankey-type orbitals: 13

atm_pop: Valence configuration (for local Pseudopot. screening):
 2s( 2.00)                                                            
 2p( 2.00)                                                            
Vna: chval, zval:    4.00000   4.00000

Vna:  Cut-off radius for the neutral-atom potential:   5.658549
comcore: Pseudo-core radius Rcore=  1.791422

atom: _________________________________________________________________________

prinput: Basis input ----------------------------------------------------------

PAO.BasisType split     

%block ChemicalSpeciesLabel
    1    5 B                       # Species index, atomic number, species label
    2    6 C                       # Species index, atomic number, species label
%endblock ChemicalSpeciesLabel

%block PAO.Basis                 # Define Basis set
B                     2                    # Species label, number of l-shells
 n=2   0   2                         # n, l, Nzeta 
   5.422      4.223   
   1.000      1.000   
 n=2   1   2 P   1                   # n, l, Nzeta, Polarization, NzetaPol
   6.790      4.609   
   1.000      1.000   
C                     2                    # Species label, number of l-shells
 n=2   0   2                         # n, l, Nzeta 
   4.633      3.432   
   1.000      1.000   
 n=2   1   2 P   1                   # n, l, Nzeta, Polarization, NzetaPol
   5.659      3.653   
   1.000      1.000   
%endblock PAO.Basis

prinput: ----------------------------------------------------------------------

coor:   Atomic-coordinates input format  =     Fractional

siesta: Atomic coordinates (Bohr) and species
siesta:      6.95932  30.82560   0.00000  1        1
siesta:     -2.35420  17.38257   0.00000  1        2
siesta:     -0.02582  18.72698   0.00000  1        3
siesta:     -0.02582  21.41544   0.00000  1        4
siesta:      2.30256  22.75985   0.00000  1        5
siesta:     -4.68258  18.72698   0.00000  1        6
siesta:     -4.68258  21.41544   0.00000  1        7
siesta:     -2.35420  22.75985   0.00000  1        8
siesta:     -2.35420  25.44831   0.00000  1        9
siesta:      4.63094  26.79272   0.00000  1       10
siesta:      4.63094  29.48119   0.00000  1       11
siesta:     -0.02582  29.48119   0.00000  1       12
siesta:     -4.68258  29.48119   0.00000  1       13
siesta:      2.30256  30.82560   0.00000  1       14
siesta:      2.30256  33.51406   0.00000  1       15
siesta:     -7.01096  30.82560   0.00000  1       16
siesta:     -0.02582   2.59549   0.00000  2       17
siesta:     -0.02582   5.28395   0.00000  2       18
siesta:     -2.35420  38.89134   0.00000  2       19
siesta:     -2.35420  41.57980   0.00000  2       20
siesta:      2.30256  38.89134   0.00000  2       21
siesta:      2.30256  41.57980   0.00000  2       22
siesta:      4.63094  34.85847   0.00000  2       23
siesta:      4.63094  37.54693   0.00000  2       24
siesta:      6.95932  33.51406   0.00000  2       25
siesta:      9.28770  26.79272   0.00000  2       26
siesta:      9.28770  29.48119   0.00000  2       27
siesta:     -4.68258  34.85847   0.00000  2       28
siesta:     -4.68258  37.54693   0.00000  2       29
siesta:      2.30256   6.62836   0.00000  2       30
siesta:      2.30256   9.31683   0.00000  2       31
siesta:      4.63094  10.66124   0.00000  2       32
siesta:      4.63094  13.34970   0.00000  2       33
siesta:      6.95932  14.69411   0.00000  2       34
siesta:      6.95932  17.38257   0.00000  2       35
siesta:      9.28770  18.72698   0.00000  2       36
siesta:      9.28770  21.41544   0.00000  2       37
siesta:     11.61608  22.75985   0.00000  2       38
siesta:     11.61608  25.44831   0.00000  2       39
siesta:     -2.35420   6.62836   0.00000  2       40
siesta:     -2.35420   9.31683   0.00000  2       41
siesta:     -0.02582  10.66124   0.00000  2       42
siesta:     -0.02582  13.34970   0.00000  2       43
siesta:      2.30256  14.69411   0.00000  2       44
siesta:      2.30256  17.38257   0.00000  2       45
siesta:      4.63094  18.72698   0.00000  2       46
siesta:      4.63094  21.41544   0.00000  2       47
siesta:      6.95932  22.75985   0.00000  2       48
siesta:      6.95932  25.44831   0.00000  2       49
siesta:     -4.68258  10.66124   0.00000  2       50
siesta:     -4.68258  13.34970   0.00000  2       51
siesta:     -2.35420  14.69411   0.00000  2       52
siesta:      2.30256  25.44831   0.00000  2       53
siesta:     -7.01096  14.69411   0.00000  2       54
siesta:     -7.01096  17.38257   0.00000  2       55
siesta:     -9.33934  18.72698   0.00000  2       56
siesta:     -9.33934  21.41544   0.00000  2       57
siesta:     -7.01096  22.75985   0.00000  2       58
siesta:     -7.01096  25.44831   0.00000  2       59
siesta:    -11.66772  22.75985   0.00000  2       60
siesta:    -11.66772  25.44831   0.00000  2       61
siesta:     -9.33934  26.79272   0.00000  2       62
siesta:     -9.33934  29.48119   0.00000  2       63
siesta:     -0.02582  26.79272   0.00000  2       64
siesta:     -4.68258  26.79272   0.00000  2       65
siesta:     -2.35420  30.82560   0.00000  2       66
siesta:     -2.35420  33.51406   0.00000  2       67
siesta:     -7.01096  33.51406   0.00000  2       68
siesta:     -0.02582  34.85847   0.00000  2       69
siesta:     -0.02582  37.54693   0.00000  2       70
siesta:     -0.02582  42.92421   0.00000  2       71
siesta:     -0.02582  45.61267   0.00000  2       72

siesta: System type = slab      

initatomlists: Number of atoms, orbitals, and projectors:     72   936  1152

siesta: ******************** Simulation parameters ****************************
siesta:
siesta: The following are some of the parameters of the simulation.
siesta: A complete list of the parameters used, including default values,
siesta: can be found in file out.fdf
siesta:
redata: Non-Collinear-spin run           =     F
redata: SpinPolarized (Up/Down) run      =     F
redata: Number of spin components        =     1
redata: Long output                      =     F
redata: Number of Atomic Species         =        2
redata: Charge density info will appear in .RHO file
redata: Write Mulliken Pop.              =     NO
redata: Mesh Cutoff                      =   200.0000  Ry
redata: Net charge of the system         =     0.0000 |e|
redata: Max. number of SCF Iter          =      500
redata: SCF convergence failure will abort job
redata: Performing Pulay mixing using    =    10 iterations
redata: Mix DM in first SCF step ?       =     F
redata: Write Pulay info on disk?        =     F
redata: Discard 1st Pulay DM after  kick =     F
redata: New DM Mixing Weight             =     0.0500
redata: New DM Occupancy tolerance       = 0.000000000001
redata: No kicks to SCF
redata: DM Mixing Weight for Kicks       =     0.5000
redata: DM Tolerance for SCF             =     0.000100
redata: Require Energy convergence for SCF =     F
redata: DM Energy tolerance for SCF      =     0.000100 eV
redata: Require Harris convergence for SCF =     F
redata: DM Harris energy tolerance for SCF =     0.000100 eV
redata: Using Saved Data (generic)   =     F
redata: Use continuation files for DM    =     T
redata: Neglect nonoverlap interactions  =     F
redata: Method of Calculation            =     Diagonalization
redata: Divide and Conquer               =     T
redata: Electronic Temperature           =     0.0019  Ry
redata: Fix the spin of the system       =     F
redata: Dynamics option                  =     Verlet MD run
redata: Initial MD time step             =        1
redata:   Final MD time step             =        1
redata: Length of MD time step           =     1.0000  fs
redata: Initial Temperature of MD run    =     0.0000  K
redata: Perform a MD quench              =     F
redata: ***********************************************************************
Total number of electrons:   272.000000
Total ionic charge:   272.000000

* ProcessorY, Blocksize:    2  24

k-point displ. along   1 input, could be:     0.50    0.00
k-point displ. along   2 input, could be:     0.50    0.00
 Kpoints in:          231 . Kpoints trimmed:          231

siesta: k-grid: Number of k-points =   231
siesta: k-grid: Cutoff (effective) =     5.000 Ang
siesta: k-grid: Supercell and displacements
siesta: k-grid:   21   0   0      0.500
siesta: k-grid:    0  21   0      0.500
siesta: k-grid:    0   0   1      0.000
Naive supercell factors:     2    2    2

superc: Internal auxiliary supercell:     2 x     2 x     2  =       8
superc: Number of atoms, orbitals, and projectors:    576   7488   9216

* Maximum dynamic memory allocated =     4 MB

siesta:                 ==============================
                            Begin MD step =      1
                        ==============================

superc: Internal auxiliary supercell:     2 x     2 x     2  =       8
superc: Number of atoms, orbitals, and projectors:    576   7488   9216

outcell: Unit cell vectors (Ang):
       12.804619    7.392750    0.000000
        0.000000   14.785500    0.000000
        0.000000    0.000000   10.000000

outcell: Cell vector modules (Ang)   :   14.785500   14.785500   10.000000
outcell: Cell angles (23,13,12) (deg):     90.0000     90.0000     60.0000
outcell: Cell volume (Ang**3)        :   1893.2269
New_DM. Step:     1
Initializing Density Matrix...

InitMesh: MESH =   120 x   120 x    90 =     1296000
InitMesh: Mesh cutoff (required, used) =   200.000   223.865 Ry

* Maximum dynamic memory allocated =   216 MB

stepf: Fermi-Dirac step function

siesta: Program's energy decomposition (eV):
siesta: Ebs     =     -5599.807888
siesta: Eions   =     16354.103692
siesta: Ena     =      4325.909283
siesta: Ekin    =      5534.369168
siesta: Enl     =       764.779588
siesta: DEna    =        -0.000010
siesta: DUscf   =         0.000000
siesta: DUext   =         0.000000
siesta: Exc     =     -4196.080566
siesta: eta*DQ  =         0.000000
siesta: Emadel  =         0.000000
siesta: Emeta   =         0.000000
siesta: Emolmec =         0.000000
siesta: Ekinion =         0.000000
siesta: Eharris =     -9637.820167
siesta: Etot    =     -9925.126229
siesta: FreeEng =     -9925.126229

siesta: iscf   Eharris(eV)      E_KS(eV)   FreeEng(eV)   dDmax  Ef(eV)
siesta:    1    -9637.8202    -9925.1262    -9925.1262  6.6417 -8.3675
timer: Routine,Calls,Time,% = IterSCF        1    3459.376  99.69
elaps: Routine,Calls,Wall,% = IterSCF        1     433.246  99.69
siesta:    2   -14151.9474    -8951.4245    -8951.4940 22.6610 -2.4305
siesta:    3    -9576.2566    -9791.8543    -9791.8817  3.6501 -7.1865
siesta:    4    -9545.0790    -9646.2761    -9646.3464  1.3361 -5.8617
siesta:    5    -9507.6866    -9574.1381    -9574.1899  0.8698 -5.6856
siesta:    6    -9498.9857    -9529.6626    -9529.7304  0.8237 -5.5469
siesta:    7    -9492.3995    -9512.2003    -9512.2399  0.7657 -5.4297
siesta:    8    -9490.6513    -9503.7353    -9503.8040  0.7176 -5.4309
siesta:    9    -9489.7882    -9494.9666    -9495.0350  0.6229 -5.3633
siesta:   10    -9490.0043    -9478.3765    -9478.4506  0.3897 -5.2644
siesta:   11    -9489.0033    -9470.8422    -9470.9296  0.2414 -5.2183
siesta:   12    -9489.5150    -9462.7460    -9462.8301  0.1864 -5.1812
siesta:   13    -9488.7986    -9463.4863    -9463.5556  0.1375 -5.1955
siesta:   14    -9488.2221    -9469.3981    -9469.4753  0.1052 -5.2312
siesta:   15    -9488.0893    -9473.3714    -9473.4479  0.0905 -5.2547
siesta:   16    -9487.9801    -9477.7033    -9477.7829  0.0617 -5.2642
siesta:   17    -9487.9644    -9480.3875    -9480.4663  0.0398 -5.2745
siesta:   18    -9487.9452    -9483.4655    -9483.5439  0.0280 -5.2853
siesta:   19    -9487.9307    -9485.9772    -9486.0557  0.0368 -5.2929
siesta:   20    -9487.9275    -9486.9519    -9487.0319  0.0346 -5.2912
siesta:   21    -9487.9255    -9488.1759    -9488.2563  0.0119 -5.2756
siesta:   22    -9487.9235    -9488.7468    -9488.8276  0.0108 -5.2760
siesta:   23    -9487.9224    -9488.6473    -9488.7285  0.0064 -5.2731
siesta:   24    -9487.0864    -9488.4053    -9488.4862  2.1268 -5.2714
siesta:   25    -9487.9220    -9488.3917    -9488.4727  0.0054 -5.2710
siesta:   26    -9487.9220    -9488.1858    -9488.2667  0.0040 -5.2701
siesta:   27    -9487.9217    -9488.1439    -9488.2249  0.0028 -5.2708
siesta:   28    -9487.9217    -9488.1449    -9488.2258  0.0020 -5.2715
siesta:   29    -9487.9217    -9488.0836    -9488.1645  0.0012 -5.2719
siesta:   30    -9487.9217    -9487.9836    -9488.0645  0.0006 -5.2724
siesta:   31    -9487.9217    -9487.9530    -9488.0339  0.0007 -5.2724
siesta:   32    -9487.9217    -9487.9508    -9488.0317  0.0004 -5.2724
siesta:   33    -9487.9217    -9487.9362    -9488.0171  0.0003 -5.2725
siesta:   34    -9487.9217    -9487.9197    -9488.0005  0.0002 -5.2725
siesta:   35    -9487.9217    -9487.9064    -9487.9873  0.0001 -5.2725
siesta:   36    -9487.9217    -9487.9036    -9487.9845  0.0001 -5.2724
siesta:   37    -9487.9217    -9487.9137    -9487.9946  0.0001 -5.2724

siesta: E_KS(eV) =            -9487.9195

siesta: E_KS - E_eggbox =     -9487.9195

siesta: Atomic forces (eV/Ang):
----------------------------------------
   Tot   -0.127834    0.037526    0.000000
----------------------------------------
   Max  558.399911
   Res  148.908464    sqrt( Sum f_i^2 / 3N )
----------------------------------------
   Max  558.399911    constrained

Stress-tensor-Voigt (kbar):     -812.47    -2689.65       -0.60       -5.48        0.00        0.00
(Free)E + p*V (eV/cell)    -8108.3434
Target enthalpy (eV/cell)    -9488.0004

siesta: Stress tensor (static) (eV/Ang**3):
        -0.507097   -0.003418    0.000000
        -0.003418   -1.678729    0.000000
         0.000000    0.000000   -0.000373

siesta: Pressure (static):       1167.57170496  kBar

siesta: Stress tensor (total) (eV/Ang**3):
        -0.507097   -0.003418    0.000000
        -0.003418   -1.678729    0.000000
         0.000000    0.000000   -0.000373

siesta: Pressure (total):       1167.57170496  kBar

siesta: Temp_ion =       0.000 K

* Maximum dynamic memory allocated =   233 MB
Computing bands...

siesta: Program's energy decomposition (eV):
siesta: Ebs     =     -4252.430177
siesta: Eions   =     16354.103692
siesta: Ena     =      4325.909283
siesta: Ekin    =      8429.044771
siesta: Enl     =      -842.344252
siesta: DEna    =      -784.504637
siesta: DUscf   =       104.166256
siesta: DUext   =         0.000000
siesta: Exc     =     -4366.087248
siesta: eta*DQ  =         0.000000
siesta: Emadel  =         0.000000
siesta: Emeta   =         0.000000
siesta: Emolmec =         0.000000
siesta: Ekinion =         0.000000
siesta: Eharris =     -9487.921687
siesta: Etot    =     -9487.919519
siesta: FreeEng =     -9488.000410

siesta: Final energy (eV):
siesta:  Band Struct. =   -4252.430177
siesta:       Kinetic =    8429.044771
siesta:       Hartree =   27561.815234
siesta:    Ext. field =       0.000000
siesta:   Exch.-corr. =   -4366.087248
siesta:  Ion-electron =  -63258.240033
siesta:       Ion-ion =   22145.547756
siesta:       Ekinion =       0.000000
siesta:         Total =   -9487.919519

siesta: Atomic forces (eV/Ang):
siesta:      1    8.684433    3.567039    0.000000
siesta:      2  -15.441187   -3.214152    0.000000
siesta:      3    0.789342  408.653981    0.000000
siesta:      4   -1.153774    0.088479    0.000000
siesta:      5    4.695213    1.405691    0.000000
siesta:      6   -1.429440   -3.084106    0.000000
siesta:      7   -4.421752    3.458691    0.000000
siesta:      8    1.730446   -3.722487    0.000000
siesta:      9   -1.543873    5.626922    0.000000
siesta:     10    0.310783   -4.584902    0.000000
siesta:     11   -1.612896    1.840372    0.000000
siesta:     12    0.688832 -413.043668    0.000000
siesta:     13    5.165185   -2.634420    0.000000
siesta:     14   14.969383    1.023052    0.000000
siesta:     15   21.214991 -401.629939    0.000000
siesta:     16   -8.936596    4.162911    0.000000
siesta:     17   -2.544948  406.155722    0.000000
siesta:     18    4.701521 -126.875535    0.000000
siesta:     19    1.903717  128.086233    0.000000
siesta:     20  -19.167948 -553.034323    0.000000
siesta:     21   -0.732902  127.111255    0.000000
siesta:     22   17.368139 -549.540818    0.000000
siesta:     23   26.131688    0.983981    0.000000
siesta:     24   29.220639 -551.218437    0.000000
siesta:     25   -4.252588    4.433805    0.000000
siesta:     26    3.116581    1.957908    0.000000
siesta:     27    0.353504   -3.012831    0.000000
siesta:     28  -25.729450    4.962376    0.000000
siesta:     29  -31.280761 -549.015052    0.000000
siesta:     30   18.338152  408.796255    0.000000
siesta:     31   -0.511553 -124.646055    0.000000
siesta:     32   34.231147  551.927137    0.000000
siesta:     33   27.178145   -5.459828    0.000000
siesta:     34   -2.492749   -1.451570    0.000000
siesta:     35    2.584682   -0.604294    0.000000
siesta:     36   -1.215594    0.106146    0.000000
siesta:     37    2.498885   -2.389590    0.000000
siesta:     38   -0.047229    7.479078    0.000000
siesta:     39   -0.068141   -7.554548    0.000000
siesta:     40  -20.067766  550.238813    0.000000
siesta:     41    1.429387 -128.271740    0.000000
siesta:     42   -3.214566  549.647847    0.000000
siesta:     43   -0.822176 -127.399593    0.000000
siesta:     44   24.187861  556.672825    0.000000
siesta:     45   22.059686   -2.752267    0.000000
siesta:     46   -0.716026    2.030636    0.000000
siesta:     47    2.563936   -2.050772    0.000000
siesta:     48    0.392194    1.060777    0.000000
siesta:     49    2.593243   -3.089785    0.000000
siesta:     50  -33.956383  550.518552    0.000000
siesta:     51  -26.251263   -4.723382    0.000000
siesta:     52  -22.426747  555.014257    0.000000
siesta:     53   -3.888673    3.478013    0.000000
siesta:     54    2.904330   -1.293279    0.000000
siesta:     55   -7.091420   -2.022414    0.000000
siesta:     56    1.493096   -0.050959    0.000000
siesta:     57   -2.551016   -1.941044    0.000000
siesta:     58   -2.374375    2.441291    0.000000
siesta:     59    0.645161   -0.897307    0.000000
siesta:     60   -0.062917    6.801080    0.000000
siesta:     61    0.358801   -6.827706    0.000000
siesta:     62   -3.703778    1.955765    0.000000
siesta:     63   -0.040186   -2.651135    0.000000
siesta:     64    3.449585   -1.733571    0.000000
siesta:     65   -3.308271   -2.399771    0.000000
siesta:     66  -20.632442    4.195683    0.000000
siesta:     67  -24.727197 -558.399911    0.000000
siesta:     68    4.094807    4.381208    0.000000
siesta:     69    6.656020  117.474742    0.000000
siesta:     70    0.708469 -546.987168    0.000000
siesta:     71   -3.546553  127.490803    0.000000
siesta:     72    2.425321 -404.983440    0.000000
siesta: ----------------------------------------
siesta:    Tot   -0.127834    0.037526    0.000000

siesta: Stress tensor (static) (eV/Ang**3):
siesta:    -0.507097   -0.003418    0.000000
siesta:    -0.003418   -1.678729    0.000000
siesta:     0.000000    0.000000   -0.000373

siesta: Cell volume =       1893.226884 Ang**3

siesta: Pressure (static):
siesta:                Solid            Molecule  Units
siesta:           0.00793683          0.11405144  Ry/Bohr**3
siesta:           0.72873306         10.47181534  eV/Ang**3
siesta:        1167.57170496      16777.87921099  kBar
(Free)E+ p_basis*V_orbitals  =       -9452.207537
(Free)Eharris+ p_basis*V_orbitals  =       -9452.215504

siesta: Electric dipole (a.u.)  =    0.000000    0.000000    0.000000
siesta: Electric dipole (Debye) =    0.000000    0.000000    0.000000

* Maximum dynamic memory allocated : Node    0 =   233 MB
* Maximum dynamic memory allocated : Node    1 =    81 MB
* Maximum dynamic memory allocated : Node    2 =    84 MB
* Maximum dynamic memory allocated : Node    3 =   220 MB
* Maximum dynamic memory allocated : Node    4 =   224 MB
* Maximum dynamic memory allocated : Node    5 =    81 MB
* Maximum dynamic memory allocated : Node    6 =    84 MB
* Maximum dynamic memory allocated : Node    7 =   208 MB

* Maximum memory occured during matrixMtoO                    

timer: CPU execution times:
timer:  Routine       Calls   Time/call    Tot.time        %
timer:  siesta            1  126160.908  126160.908   100.00
timer:  Setup             1       2.680       2.680     0.00
timer:  bands             3     243.456     730.369     0.58
timer:  writewave         1       0.021       0.021     0.00
timer:  KSV_init          1       0.000       0.000     0.00
timer:  IterMD            1  125422.630  125422.630    99.41
timer:  hsparse           1       0.517       0.517     0.00
timer:  overlap           1       7.208       7.208     0.01
timer:  IterSCF          37    3384.415  125223.362    99.26
timer:  kinefsm           2       3.739       7.478     0.01
timer:  nlefsm            2      19.634      39.267     0.03
timer:  DHSCF            38     104.589    3974.389     3.15
timer:  DHSCF1            1       0.991       0.991     0.00
timer:  DHSCF2            1      41.120      41.120     0.03
timer:  REORD           306       0.005       1.505     0.00
timer:  POISON           39       0.866      33.769     0.03
timer:  DHSCF3           38     102.427    3892.223     3.09
timer:  rhoofd           38      23.104     877.954     0.70
timer:  cellXC           38       3.280     124.655     0.10
timer:  vmat             38      46.707    1774.851     1.41
timer:  MolMec            2       0.000       0.000     0.00
timer:  diagon           37    3279.181  121329.705    96.17
timer:  c-eigval       8668       6.014   52126.877    41.32
timer:  c-buildHS      8668       0.052     447.035     0.35
timer:  cdiag         17215       6.150  105876.048    83.92
timer:  cdiag1        17215       0.385    6634.849     5.26
timer:  cdiag2        17215       1.769   30445.666    24.13
timer:  cdiag3        17215       3.720   64035.354    50.76
timer:  cdiag4        17215       0.158    2721.423     2.16
timer:  c-eigvec       8547       6.384   54565.071    43.25
timer:  c-buildD       8547       1.793   15324.366    12.15
timer:  DHSCF4            1      39.345      39.345     0.03
timer:  dfscf             1      36.604      36.604     0.03
timer:  overfsm           1       0.448       0.448     0.00
timer:  optical           1       4.565       4.565     0.00
  

elaps: ELAPSED times:
elaps:  Routine       Calls   Time/call    Tot.time        %
elaps:  siesta            1   15799.694   15799.694   100.00
elaps:  Setup             1       0.336       0.336     0.00
elaps:  bands             3      30.506      91.519     0.58
elaps:  writewave         1       0.002       0.002     0.00
elaps:  KSV_init          1       0.000       0.000     0.00
elaps:  IterMD            1   15707.235   15707.235    99.41
elaps:  hsparse           1       0.066       0.066     0.00
elaps:  overlap           1       0.911       0.911     0.01
elaps:  IterSCF          37     423.845   15682.281    99.26
elaps:  kinefsm           2       0.475       0.949     0.01
elaps:  nlefsm            2       2.555       5.110     0.03
elaps:  DHSCF            38      13.223     502.490     3.18
elaps:  DHSCF1            1       0.126       0.126     0.00
elaps:  DHSCF2            1       5.149       5.149     0.03
elaps:  REORD           306       0.001       0.205     0.00
elaps:  POISON           39       0.109       4.248     0.03
elaps:  DHSCF3           38      12.828     487.475     3.09
elaps:  rhoofd           38       6.430     244.357     1.55
elaps:  cellXC           38       0.411      15.603     0.10
elaps:  vmat             38       5.850     222.292     1.41
elaps:  MolMec            2       0.000       0.000     0.00
elaps:  diagon           37     410.674   15194.929    96.17
elaps:  c-eigval       8668       0.753    6528.038    41.32
elaps:  c-buildHS      8668       0.007      61.227     0.39
elaps:  cdiag         17215       0.766   13180.688    83.42
elaps:  cdiag1        17215       0.048     833.171     5.27
elaps:  cdiag2        17215       0.222    3813.595    24.14
elaps:  cdiag3        17215       0.466    8030.018    50.82
elaps:  cdiag4        17215       0.019     333.338     2.11
elaps:  c-eigvec       8547       0.791    6763.882    42.81
elaps:  c-buildD       8547       0.233    1988.509    12.59
elaps:  DHSCF4            1       9.657       9.657     0.06
elaps:  dfscf             1       9.118       9.118     0.06
elaps:  overfsm           1       0.058       0.058     0.00
elaps:  optical           1       0.000       0.000     0.00
  
>> End of run:   2-MAY-2016   7:12:09
